110
Lattice="13.379014 0.0 0.0 -2.192649568935913 10.875382232865851 0.0 -7.951727887405672e-05 1.890008374257726e-05 13.16764299974634" Properties=species:S:1:pos:R:3:spacegroup_kinds:I:1 energy=10000000000.0 pbc="T T T"
Al       3.34472526       0.00011820       6.58375566        0
Al       5.59316620       5.43757149       0.00005267        1
Al       0.00005412       0.00007470       6.58375566        2
Al       2.24837706       5.43758236      -0.00002634        3
H        1.81835141       8.11868294       9.99737494        4
H        4.92697613       8.19433353       3.41361927        5
H        2.67850908       2.75673994       3.17024173        6
H       -0.43019777       2.68119811       9.75397105        7
H        4.90125184       8.28039963       9.82728849        8
H        1.84414280       8.03272510       3.24349333        9
H       -0.40440692       2.59503413       3.34042035       10
H        2.65277318       2.84262165       9.92420234       11
H       -0.51504608       9.13950631       6.33063406       12
H        0.57073138       7.17361641      12.91437655       13
H        5.01176356       1.73582957       6.83715378       14
H        3.92616947       3.70187172       0.25321377       15
C        2.80636570       9.31610379       8.43754911       16
C        3.93889799       6.99685383       1.85379345       17
C        1.69039620       1.55917771       4.73017289       18
C        0.55794923       3.87860168      11.31391539       19
C        2.79702324       8.41579784       9.61826533       20
C        3.94801202       7.89713054       3.03437799       21
C        1.69969863       2.45951629       3.54948301       22
C        0.54851574       2.97815097      10.13313334       23
C        3.92237730       7.97811892      10.20267166       24
C        2.82256933       8.33508302       3.61873165       25
C        0.57435413       2.89738009       2.96506352       26
C        1.67390306       2.54030724       9.54872700       27
C        3.89915633       7.05756299      11.36587491       28
C        2.84594293       9.25547916       4.78218508       29
C        0.59764801       3.81774027       1.80158375       30
C        1.65078147       1.61992197       8.38551059       31
O        3.93288480       9.60979275       7.92236508       32
O        2.81245509       6.70341352       1.33850408       33
O        0.56393763       1.26558663       5.24535692       34
O        1.68450816       4.17206374      11.82916526       35
O        1.65996009       9.70463712       8.03351316       36
O        5.08520802       6.60828671       1.44969166       37
O        2.83681771       1.17073139       5.13420885       38
O       -0.58845895       4.26715792      11.71792501       39
O        5.03311576       6.74963813      11.86588981       40
O        1.71188897       9.56361208       5.28196297       41
O       -0.53637062       4.12595876       1.30174002       42
O        2.78470811       1.31172380       7.88571953       43
O        2.76645256       6.64461444      11.77675804       44
O        3.97876028       9.66853764       5.19287070       45
O        1.73035014       4.23086282       1.39093763       46
O        0.51804867       1.20680911       7.97473280       47
O       -0.51897992      10.07174445       6.59089252       48
O        0.57471484       6.24136012       0.00704469       49
O        5.01546569       0.80364581       6.57675048       50
O        3.92233976       4.63409539      13.16054564       51
Al      10.03423226       0.00011820       6.58375566        0
Al      -1.09634080       5.43757149       0.00005267        1
Al       6.68956112       0.00007470       6.58375566        2
Al       8.93788406       5.43758236      -0.00002634        3
H        8.50785841       8.11868294       9.99737494        4
H       11.61648313       8.19433353       3.41361927        5
H        9.36801608       2.75673994       3.17024173        6
H        6.25930923       2.68119811       9.75397105        7
H       11.59075884       8.28039963       9.82728849        8
H        8.53364980       8.03272510       3.24349333        9
H        6.28510008       2.59503413       3.34042035       10
H        9.34228018       2.84262165       9.92420234       11
H        6.17446092       9.13950631       6.33063406       12
H        7.26023838       7.17361641      12.91437655       13
H       11.70127056       1.73582957       6.83715378       14
H       10.61567647       3.70187172       0.25321377       15
C        9.49587270       9.31610379       8.43754911       16
C       10.62840499       6.99685383       1.85379345       17
C        8.37990320       1.55917771       4.73017289       18
C        7.24745623       3.87860168      11.31391539       19
C        9.48653024       8.41579784       9.61826533       20
C       10.63751902       7.89713054       3.03437799       21
C        8.38920563       2.45951629       3.54948301       22
C        7.23802274       2.97815097      10.13313334       23
C       10.61188430       7.97811892      10.20267166       24
C        9.51207633       8.33508302       3.61873165       25
C        7.26386113       2.89738009       2.96506352       26
C        8.36341006       2.54030724       9.54872700       27
C       10.58866333       7.05756299      11.36587491       28
C        9.53544993       9.25547916       4.78218508       29
C        7.28715501       3.81774027       1.80158375       30
C        8.34028847       1.61992197       8.38551059       31
O       10.62239180       9.60979275       7.92236508       32
O        9.50196209       6.70341352       1.33850408       33
O        7.25344463       1.26558663       5.24535692       34
O        8.37401516       4.17206374      11.82916526       35
O        8.34946709       9.70463712       8.03351316       36
O       11.77471502       6.60828671       1.44969166       37
O        9.52632471       1.17073139       5.13420885       38
O        6.10104805       4.26715792      11.71792501       39
O       11.72262276       6.74963813      11.86588981       40
O        8.40139597       9.56361208       5.28196297       41
O        6.15313638       4.12595876       1.30174002       42
O        9.47421511       1.31172380       7.88571953       43
O        9.45595956       6.64461444      11.77675804       44
O       10.66826728       9.66853764       5.19287070       45
O        8.41985714       4.23086282       1.39093763       46
O        7.20755567       1.20680911       7.97473280       47
O        6.17052708      10.07174445       6.59089252       48
O        7.26422184       6.24136012       0.00704469       49
O       11.70497269       0.80364581       6.57675048       50
O       10.61184676       4.63409539      13.16054564       51
C       19.49493214       9.01544482       8.96061280        0
C       19.83937496       8.88235838      10.24219964        1
H       18.47223619       9.25345109       8.66119558        2
H       20.22065352       8.89217352       8.15402047        3
H       19.11361241       9.00567283      11.04882266        4
H       20.86207111       8.64436092      10.54160472        5
110
Lattice="13.379014 0.0 0.0 -2.192649568935913 10.875382232865851 0.0 -7.951727887405672e-05 1.890008374257726e-05 13.16764299974634" Properties=species:S:1:pos:R:3:spacegroup_kinds:I:1 energy=-0.4473309947302581 pbc="T T T"
Al       3.34472526       0.00011820       6.58375566        0
Al       5.59316620       5.43757149       0.00005267        1
Al       0.00005412       0.00007470       6.58375566        2
Al       2.24837706       5.43758236      -0.00002634        3
H        1.81835141       8.11868294       9.99737494        4
H        4.92697613       8.19433353       3.41361927        5
H        2.67850908       2.75673994       3.17024173        6
H       -0.43019777       2.68119811       9.75397105        7
H        4.90125184       8.28039963       9.82728849        8
H        1.84414280       8.03272510       3.24349333        9
H       -0.40440692       2.59503413       3.34042035       10
H        2.65277318       2.84262165       9.92420234       11
H       -0.51504608       9.13950631       6.33063406       12
H        0.57073138       7.17361641      12.91437655       13
H        5.01176356       1.73582957       6.83715378       14
H        3.92616947       3.70187172       0.25321377       15
C        2.80636570       9.31610379       8.43754911       16
C        3.93889799       6.99685383       1.85379345       17
C        1.69039620       1.55917771       4.73017289       18
C        0.55794923       3.87860168      11.31391539       19
C        2.79702324       8.41579784       9.61826533       20
C        3.94801202       7.89713054       3.03437799       21
C        1.69969863       2.45951629       3.54948301       22
C        0.54851574       2.97815097      10.13313334       23
C        3.92237730       7.97811892      10.20267166       24
C        2.82256933       8.33508302       3.61873165       25
C        0.57435413       2.89738009       2.96506352       26
C        1.67390306       2.54030724       9.54872700       27
C        3.89915633       7.05756299      11.36587491       28
C        2.84594293       9.25547916       4.78218508       29
C        0.59764801       3.81774027       1.80158375       30
C        1.65078147       1.61992197       8.38551059       31
O        3.93288480       9.60979275       7.92236508       32
O        2.81245509       6.70341352       1.33850408       33
O        0.56393763       1.26558663       5.24535692       34
O        1.68450816       4.17206374      11.82916526       35
O        1.65996009       9.70463712       8.03351316       36
O        5.08520802       6.60828671       1.44969166       37
O        2.83681771       1.17073139       5.13420885       38
O       -0.58845895       4.26715792      11.71792501       39
O        5.03311576       6.74963813      11.86588981       40
O        1.71188897       9.56361208       5.28196297       41
O       -0.53637062       4.12595876       1.30174002       42
O        2.78470811       1.31172380       7.88571953       43
O        2.76645256       6.64461444      11.77675804       44
O        3.97876028       9.66853764       5.19287070       45
O        1.73035014       4.23086282       1.39093763       46
O        0.51804867       1.20680911       7.97473280       47
O       -0.51897992      10.07174445       6.59089252       48
O        0.57471484       6.24136012       0.00704469       49
O        5.01546569       0.80364581       6.57675048       50
O        3.92233976       4.63409539      13.16054564       51
Al      10.03423226       0.00011820       6.58375566        0
Al      -1.09634080       5.43757149       0.00005267        1
Al       6.68956112       0.00007470       6.58375566        2
Al       8.93788406       5.43758236      -0.00002634        3
H        8.50785841       8.11868294       9.99737494        4
H       11.61648313       8.19433353       3.41361927        5
H        9.36801608       2.75673994       3.17024173        6
H        6.25930923       2.68119811       9.75397105        7
H       11.59075884       8.28039963       9.82728849        8
H        8.53364980       8.03272510       3.24349333        9
H        6.28510008       2.59503413       3.34042035       10
H        9.34228018       2.84262165       9.92420234       11
H        6.17446092       9.13950631       6.33063406       12
H        7.26023838       7.17361641      12.91437655       13
H       11.70127056       1.73582957       6.83715378       14
H       10.61567647       3.70187172       0.25321377       15
C        9.49587270       9.31610379       8.43754911       16
C       10.62840499       6.99685383       1.85379345       17
C        8.37990320       1.55917771       4.73017289       18
C        7.24745623       3.87860168      11.31391539       19
C        9.48653024       8.41579784       9.61826533       20
C       10.63751902       7.89713054       3.03437799       21
C        8.38920563       2.45951629       3.54948301       22
C        7.23802274       2.97815097      10.13313334       23
C       10.61188430       7.97811892      10.20267166       24
C        9.51207633       8.33508302       3.61873165       25
C        7.26386113       2.89738009       2.96506352       26
C        8.36341006       2.54030724       9.54872700       27
C       10.58866333       7.05756299      11.36587491       28
C        9.53544993       9.25547916       4.78218508       29
C        7.28715501       3.81774027       1.80158375       30
C        8.34028847       1.61992197       8.38551059       31
O       10.62239180       9.60979275       7.92236508       32
O        9.50196209       6.70341352       1.33850408       33
O        7.25344463       1.26558663       5.24535692       34
O        8.37401516       4.17206374      11.82916526       35
O        8.34946709       9.70463712       8.03351316       36
O       11.77471502       6.60828671       1.44969166       37
O        9.52632471       1.17073139       5.13420885       38
O        6.10104805       4.26715792      11.71792501       39
O       11.72262276       6.74963813      11.86588981       40
O        8.40139597       9.56361208       5.28196297       41
O        6.15313638       4.12595876       1.30174002       42
O        9.47421511       1.31172380       7.88571953       43
O        9.45595956       6.64461444      11.77675804       44
O       10.66826728       9.66853764       5.19287070       45
O        8.41985714       4.23086282       1.39093763       46
O        7.20755567       1.20680911       7.97473280       47
O        6.17052708      10.07174445       6.59089252       48
O        7.26422184       6.24136012       0.00704469       49
O       11.70497269       0.80364581       6.57675048       50
O       10.61184676       4.63409539      13.16054564       51
C       12.92500891      15.78746637      19.15016347        0
C       11.63160260      16.10856570      19.20320147        1
H       13.45472431      15.38726588      20.01702322        2
H       13.51144405      15.91071098      18.23727623        3
H       11.04514325      15.98527675      20.11613285        4
H       11.10189740      16.50875614      18.33633723        5
110
Lattice="13.379014 0.0 0.0 -2.192649568935913 10.875382232865851 0.0 -7.951727887405672e-05 1.890008374257726e-05 13.16764299974634" Properties=species:S:1:pos:R:3:spacegroup_kinds:I:1 energy=-0.44808971020372174 pbc="T T T"
Al       3.34472526       0.00011820       6.58375566        0
Al       5.59316620       5.43757149       0.00005267        1
Al       0.00005412       0.00007470       6.58375566        2
Al       2.24837706       5.43758236      -0.00002634        3
H        1.81835141       8.11868294       9.99737494        4
H        4.92697613       8.19433353       3.41361927        5
H        2.67850908       2.75673994       3.17024173        6
H       -0.43019777       2.68119811       9.75397105        7
H        4.90125184       8.28039963       9.82728849        8
H        1.84414280       8.03272510       3.24349333        9
H       -0.40440692       2.59503413       3.34042035       10
H        2.65277318       2.84262165       9.92420234       11
H       -0.51504608       9.13950631       6.33063406       12
H        0.57073138       7.17361641      12.91437655       13
H        5.01176356       1.73582957       6.83715378       14
H        3.92616947       3.70187172       0.25321377       15
C        2.80636570       9.31610379       8.43754911       16
C        3.93889799       6.99685383       1.85379345       17
C        1.69039620       1.55917771       4.73017289       18
C        0.55794923       3.87860168      11.31391539       19
C        2.79702324       8.41579784       9.61826533       20
C        3.94801202       7.89713054       3.03437799       21
C        1.69969863       2.45951629       3.54948301       22
C        0.54851574       2.97815097      10.13313334       23
C        3.92237730       7.97811892      10.20267166       24
C        2.82256933       8.33508302       3.61873165       25
C        0.57435413       2.89738009       2.96506352       26
C        1.67390306       2.54030724       9.54872700       27
C        3.89915633       7.05756299      11.36587491       28
C        2.84594293       9.25547916       4.78218508       29
C        0.59764801       3.81774027       1.80158375       30
C        1.65078147       1.61992197       8.38551059       31
O        3.93288480       9.60979275       7.92236508       32
O        2.81245509       6.70341352       1.33850408       33
O        0.56393763       1.26558663       5.24535692       34
O        1.68450816       4.17206374      11.82916526       35
O        1.65996009       9.70463712       8.03351316       36
O        5.08520802       6.60828671       1.44969166       37
O        2.83681771       1.17073139       5.13420885       38
O       -0.58845895       4.26715792      11.71792501       39
O        5.03311576       6.74963813      11.86588981       40
O        1.71188897       9.56361208       5.28196297       41
O       -0.53637062       4.12595876       1.30174002       42
O        2.78470811       1.31172380       7.88571953       43
O        2.76645256       6.64461444      11.77675804       44
O        3.97876028       9.66853764       5.19287070       45
O        1.73035014       4.23086282       1.39093763       46
O        0.51804867       1.20680911       7.97473280       47
O       -0.51897992      10.07174445       6.59089252       48
O        0.57471484       6.24136012       0.00704469       49
O        5.01546569       0.80364581       6.57675048       50
O        3.92233976       4.63409539      13.16054564       51
Al      10.03423226       0.00011820       6.58375566        0
Al      -1.09634080       5.43757149       0.00005267        1
Al       6.68956112       0.00007470       6.58375566        2
Al       8.93788406       5.43758236      -0.00002634        3
H        8.50785841       8.11868294       9.99737494        4
H       11.61648313       8.19433353       3.41361927        5
H        9.36801608       2.75673994       3.17024173        6
H        6.25930923       2.68119811       9.75397105        7
H       11.59075884       8.28039963       9.82728849        8
H        8.53364980       8.03272510       3.24349333        9
H        6.28510008       2.59503413       3.34042035       10
H        9.34228018       2.84262165       9.92420234       11
H        6.17446092       9.13950631       6.33063406       12
H        7.26023838       7.17361641      12.91437655       13
H       11.70127056       1.73582957       6.83715378       14
H       10.61567647       3.70187172       0.25321377       15
C        9.49587270       9.31610379       8.43754911       16
C       10.62840499       6.99685383       1.85379345       17
C        8.37990320       1.55917771       4.73017289       18
C        7.24745623       3.87860168      11.31391539       19
C        9.48653024       8.41579784       9.61826533       20
C       10.63751902       7.89713054       3.03437799       21
C        8.38920563       2.45951629       3.54948301       22
C        7.23802274       2.97815097      10.13313334       23
C       10.61188430       7.97811892      10.20267166       24
C        9.51207633       8.33508302       3.61873165       25
C        7.26386113       2.89738009       2.96506352       26
C        8.36341006       2.54030724       9.54872700       27
C       10.58866333       7.05756299      11.36587491       28
C        9.53544993       9.25547916       4.78218508       29
C        7.28715501       3.81774027       1.80158375       30
C        8.34028847       1.61992197       8.38551059       31
O       10.62239180       9.60979275       7.92236508       32
O        9.50196209       6.70341352       1.33850408       33
O        7.25344463       1.26558663       5.24535692       34
O        8.37401516       4.17206374      11.82916526       35
O        8.34946709       9.70463712       8.03351316       36
O       11.77471502       6.60828671       1.44969166       37
O        9.52632471       1.17073139       5.13420885       38
O        6.10104805       4.26715792      11.71792501       39
O       11.72262276       6.74963813      11.86588981       40
O        8.40139597       9.56361208       5.28196297       41
O        6.15313638       4.12595876       1.30174002       42
O        9.47421511       1.31172380       7.88571953       43
O        9.45595956       6.64461444      11.77675804       44
O       10.66826728       9.66853764       5.19287070       45
O        8.41985714       4.23086282       1.39093763       46
O        7.20755567       1.20680911       7.97473280       47
O        6.17052708      10.07174445       6.59089252       48
O        7.26422184       6.24136012       0.00704469       49
O       11.70497269       0.80364581       6.57675048       50
O       10.61184676       4.63409539      13.16054564       51
C        8.06790188      15.02897003      19.62891897        0
C        9.17731926      15.09669776      18.89174618        1
H        8.09615225      15.09216174      20.71860397        2
H        7.08214302      14.90724954      19.17513255        3
H       10.16311722      15.21845895      19.34556886        4
H        9.14905674      15.03351330      17.80206615        5
110
Lattice="13.379014 0.0 0.0 -2.192649568935913 10.875382232865851 0.0 -7.951727887405672e-05 1.890008374257726e-05 13.16764299974634" Properties=species:S:1:pos:R:3:spacegroup_kinds:I:1 energy=-0.44957491718318404 pbc="T T T"
Al       3.34472526       0.00011820       6.58375566        0
Al       5.59316620       5.43757149       0.00005267        1
Al       0.00005412       0.00007470       6.58375566        2
Al       2.24837706       5.43758236      -0.00002634        3
H        1.81835141       8.11868294       9.99737494        4
H        4.92697613       8.19433353       3.41361927        5
H        2.67850908       2.75673994       3.17024173        6
H       -0.43019777       2.68119811       9.75397105        7
H        4.90125184       8.28039963       9.82728849        8
H        1.84414280       8.03272510       3.24349333        9
H       -0.40440692       2.59503413       3.34042035       10
H        2.65277318       2.84262165       9.92420234       11
H       -0.51504608       9.13950631       6.33063406       12
H        0.57073138       7.17361641      12.91437655       13
H        5.01176356       1.73582957       6.83715378       14
H        3.92616947       3.70187172       0.25321377       15
C        2.80636570       9.31610379       8.43754911       16
C        3.93889799       6.99685383       1.85379345       17
C        1.69039620       1.55917771       4.73017289       18
C        0.55794923       3.87860168      11.31391539       19
C        2.79702324       8.41579784       9.61826533       20
C        3.94801202       7.89713054       3.03437799       21
C        1.69969863       2.45951629       3.54948301       22
C        0.54851574       2.97815097      10.13313334       23
C        3.92237730       7.97811892      10.20267166       24
C        2.82256933       8.33508302       3.61873165       25
C        0.57435413       2.89738009       2.96506352       26
C        1.67390306       2.54030724       9.54872700       27
C        3.89915633       7.05756299      11.36587491       28
C        2.84594293       9.25547916       4.78218508       29
C        0.59764801       3.81774027       1.80158375       30
C        1.65078147       1.61992197       8.38551059       31
O        3.93288480       9.60979275       7.92236508       32
O        2.81245509       6.70341352       1.33850408       33
O        0.56393763       1.26558663       5.24535692       34
O        1.68450816       4.17206374      11.82916526       35
O        1.65996009       9.70463712       8.03351316       36
O        5.08520802       6.60828671       1.44969166       37
O        2.83681771       1.17073139       5.13420885       38
O       -0.58845895       4.26715792      11.71792501       39
O        5.03311576       6.74963813      11.86588981       40
O        1.71188897       9.56361208       5.28196297       41
O       -0.53637062       4.12595876       1.30174002       42
O        2.78470811       1.31172380       7.88571953       43
O        2.76645256       6.64461444      11.77675804       44
O        3.97876028       9.66853764       5.19287070       45
O        1.73035014       4.23086282       1.39093763       46
O        0.51804867       1.20680911       7.97473280       47
O       -0.51897992      10.07174445       6.59089252       48
O        0.57471484       6.24136012       0.00704469       49
O        5.01546569       0.80364581       6.57675048       50
O        3.92233976       4.63409539      13.16054564       51
Al      10.03423226       0.00011820       6.58375566        0
Al      -1.09634080       5.43757149       0.00005267        1
Al       6.68956112       0.00007470       6.58375566        2
Al       8.93788406       5.43758236      -0.00002634        3
H        8.50785841       8.11868294       9.99737494        4
H       11.61648313       8.19433353       3.41361927        5
H        9.36801608       2.75673994       3.17024173        6
H        6.25930923       2.68119811       9.75397105        7
H       11.59075884       8.28039963       9.82728849        8
H        8.53364980       8.03272510       3.24349333        9
H        6.28510008       2.59503413       3.34042035       10
H        9.34228018       2.84262165       9.92420234       11
H        6.17446092       9.13950631       6.33063406       12
H        7.26023838       7.17361641      12.91437655       13
H       11.70127056       1.73582957       6.83715378       14
H       10.61567647       3.70187172       0.25321377       15
C        9.49587270       9.31610379       8.43754911       16
C       10.62840499       6.99685383       1.85379345       17
C        8.37990320       1.55917771       4.73017289       18
C        7.24745623       3.87860168      11.31391539       19
C        9.48653024       8.41579784       9.61826533       20
C       10.63751902       7.89713054       3.03437799       21
C        8.38920563       2.45951629       3.54948301       22
C        7.23802274       2.97815097      10.13313334       23
C       10.61188430       7.97811892      10.20267166       24
C        9.51207633       8.33508302       3.61873165       25
C        7.26386113       2.89738009       2.96506352       26
C        8.36341006       2.54030724       9.54872700       27
C       10.58866333       7.05756299      11.36587491       28
C        9.53544993       9.25547916       4.78218508       29
C        7.28715501       3.81774027       1.80158375       30
C        8.34028847       1.61992197       8.38551059       31
O       10.62239180       9.60979275       7.92236508       32
O        9.50196209       6.70341352       1.33850408       33
O        7.25344463       1.26558663       5.24535692       34
O        8.37401516       4.17206374      11.82916526       35
O        8.34946709       9.70463712       8.03351316       36
O       11.77471502       6.60828671       1.44969166       37
O        9.52632471       1.17073139       5.13420885       38
O        6.10104805       4.26715792      11.71792501       39
O       11.72262276       6.74963813      11.86588981       40
O        8.40139597       9.56361208       5.28196297       41
O        6.15313638       4.12595876       1.30174002       42
O        9.47421511       1.31172380       7.88571953       43
O        9.45595956       6.64461444      11.77675804       44
O       10.66826728       9.66853764       5.19287070       45
O        8.41985714       4.23086282       1.39093763       46
O        7.20755567       1.20680911       7.97473280       47
O        6.17052708      10.07174445       6.59089252       48
O        7.26422184       6.24136012       0.00704469       49
O       11.70497269       0.80364581       6.57675048       50
O       10.61184676       4.63409539      13.16054564       51
C       10.77176255      16.69326900      18.45544299        0
C       11.81818654      16.73112996      17.62937938        1
H       10.89529167      16.66559181      19.53996094        2
H        9.74505863      16.68822226      18.08353962        3
H       12.84493582      16.73621106      18.00131828        4
H       11.69464639      16.75881494      16.54486798        5
110
Lattice="13.379014 0.0 0.0 -2.192649568935913 10.875382232865851 0.0 -7.951727887405672e-05 1.890008374257726e-05 13.16764299974634" Properties=species:S:1:pos:R:3:spacegroup_kinds:I:1 energy=-0.45579401035249284 pbc="T T T"
Al       3.34472526       0.00011820       6.58375566        0
Al       5.59316620       5.43757149       0.00005267        1
Al       0.00005412       0.00007470       6.58375566        2
Al       2.24837706       5.43758236      -0.00002634        3
H        1.81835141       8.11868294       9.99737494        4
H        4.92697613       8.19433353       3.41361927        5
H        2.67850908       2.75673994       3.17024173        6
H       -0.43019777       2.68119811       9.75397105        7
H        4.90125184       8.28039963       9.82728849        8
H        1.84414280       8.03272510       3.24349333        9
H       -0.40440692       2.59503413       3.34042035       10
H        2.65277318       2.84262165       9.92420234       11
H       -0.51504608       9.13950631       6.33063406       12
H        0.57073138       7.17361641      12.91437655       13
H        5.01176356       1.73582957       6.83715378       14
H        3.92616947       3.70187172       0.25321377       15
C        2.80636570       9.31610379       8.43754911       16
C        3.93889799       6.99685383       1.85379345       17