 DBCSR| CPU Multiplication driver                                           XSMM (U)
 DBCSR| Multrec recursion limit                                              512 (U)
 DBCSR| Multiplication stack size                                           1000 (D)
 DBCSR| Maximum elements for images                                    UNLIMITED (U)
 DBCSR| Multiplicative factor virtual images                                   1 (U)
 DBCSR| Use multiplication densification                                       T (D)
 DBCSR| Multiplication size stacks                                             3 (U)
 DBCSR| Use memory pool for CPU allocation                                     F (U)
 DBCSR| Number of 3D layers                                               SINGLE (U)
 DBCSR| Use MPI memory allocation                                              F (U)
 DBCSR| Use RMA algorithm                                                      F (U)
 DBCSR| Use Communication thread                                               T (U)
 DBCSR| Communication thread load                                             87 (D)
 DBCSR| MPI: My process id                                                     0
 DBCSR| MPI: Number of processes                                             192
 DBCSR| OMP: Current number of threads                                         1
 DBCSR| OMP: Max number of threads                                             1
 DBCSR| Split modifier for TAS multiplication algorithm                  1.0E+00 (U)


  **** **** ******  **  PROGRAM STARTED AT               2025-07-18 12:39:35.240
 ***** ** ***  *** **   PROGRAM STARTED ON                              nid02414
 **    ****   ******    PROGRAM STARTED BY                             x_satyanb
 ***** **    ** ** **   PROGRAM PROCESS ID                               2653658
  **** **  *******  **  PROGRAM STARTED IN /scratch/x_satyanb/CCDC_NEW_2071_MOFs
                                           _ODAC_OPT/DFT_CALCULATIONS_with_CP2K_
                                           90MOFs/WATER_CALCULATIONS/MORE_CUTOFF
                                           /OPTIMIZATION_MOF_WATER/widom_qmof-a9
                                           be673_mepoml-geo_opt_odac_H2O-PBE_e_m
                                           in-opt_0005

 CP2K| version string:                                       CP2K version 2023.2
 CP2K| source code revision number:                                  git:65cca6c
 CP2K| cp2kflags: omp libint fftw3 libxc pexsi elpa parallel scalapack cosma qui
 CP2K|            p xsmm plumed2 spglib sirius libvori libbqb libvdwxc
 CP2K| is freely available from                            https://www.cp2k.org/
 CP2K| Program compiled at                       Mon 02 Sep 2024 11:42:40 PM +03
 CP2K| Program compiled on                                                   ln2
 CP2K| Program compiled for                                                local
 CP2K| Data directory path    /sw/ex111genoa/cp2k/2023.2/gcc13.2/cp2k-2023.2/dat
 CP2K| Input file name                                               GEO_OPT.inp

 GLOBAL| Force Environment number                                              1
 GLOBAL| Basis set file name                                        BASIS_MOLOPT
 GLOBAL| Potential file name                                      GTH_POTENTIALS
 GLOBAL| MM Potential file name                                     MM_POTENTIAL
 GLOBAL| Coordinate file name           widom_qmof-a9be673_mepoml-geo_opt_odac_H
 GLOBAL| Method name                                                        CP2K
 GLOBAL| Project name                   widom_qmof-a9be673_mepoml-geo_opt_odac_H
 GLOBAL| Run type                                                        GEO_OPT
 GLOBAL| FFT library                                                       FFTW3
 GLOBAL| Diagonalization library                                            ELPA
 GLOBAL| DGEMM library                                                      BLAS
 GLOBAL| Minimum number of eigenvectors for ELPA usage                        16
 GLOBAL| Orthonormality check for eigenvectors                          DISABLED
 GLOBAL| Matrix multiplication library                                     COSMA
 GLOBAL| All-to-all communication in single precision                          F
 GLOBAL| FFTs using library dependent lengths                                  F
 GLOBAL| Grid backend                                                       AUTO
 GLOBAL| Global print level                                                  LOW
 GLOBAL| MPI I/O enabled                                                       T
 GLOBAL| Total number of message passing processes                           192
 GLOBAL| Number of threads for this process                                    1
 GLOBAL| This output is from process                                           0
 GLOBAL| Stack size for threads created by OpenMP (OMP_STACKSIZE)        default
 GLOBAL| CPU model name                          AMD EPYC 9654 96-Core Processor
 GLOBAL| CPUID                                                              1003

 MEMORY| system memory details [Kb]
 MEMORY|                        rank 0           min           max       average
 MEMORY| MemTotal            394630460     394630460     394630460     394630460
 MEMORY| MemFree             349463676     349463676     349463676     349463676
 MEMORY| Buffers                     0             0             0             0
 MEMORY| Cached                 956976        956976        956976        956976
 MEMORY| Slab                 17482472      17482472      17482472      17482472
 MEMORY| SReclaimable           249484        249484        249484        249484
 MEMORY| MemLikelyFree       350670136     350670136     350670136     350670136


 GENERATE|  Preliminary Number of Bonds generated:                             0
 GENERATE|  Achieved consistency in connectivity generation.

 *******************************************************************************
 *******************************************************************************
 **                                                                           **
 **     #####                         ##              ##                      **
 **    ##   ##            ##          ##              ##                      **
 **   ##     ##                       ##            ######                    **
 **   ##     ##  ##   ##  ##   #####  ##  ##   ####   ##    #####    #####    **
 **   ##     ##  ##   ##  ##  ##      ## ##   ##      ##   ##   ##  ##   ##   **
 **   ##  ## ##  ##   ##  ##  ##      ####     ###    ##   ######   ######    **
 **    ##  ###   ##   ##  ##  ##      ## ##      ##   ##   ##       ##        **
 **     #######   #####   ##   #####  ##  ##  ####    ##    #####   ##        **
 **           ##                                                    ##        **
 **                                                                           **
 **                                                ... make the atoms dance   **
 **                                                                           **
 **            Copyright (C) by CP2K developers group (2000-2023)             **
 **                      J. Chem. Phys. 152, 194103 (2020)                    **
 **                                                                           **
 *******************************************************************************


 TOTAL NUMBERS AND MAXIMUM NUMBERS

  Total number of            - Atomic kinds:                                  55
                             - Atoms:                                         55
                             - Shell sets:                                    55
                             - Shells:                                       247
                             - Primitive Cartesian functions:                271
                             - Cartesian basis functions:                    644
                             - Spherical basis functions:                    603

  Maximum angular momentum of- Orbital basis functions:                        2
                             - Local part of the GTH pseudopotential:          2
                             - Non-local part of the GTH pseudopotential:      2


 SCF PARAMETERS         Density guess:                                   RESTART
                        --------------------------------------------------------
                        max_scf:                                             500
                        max_scf_history:                                       0
                        max_diis:                                              4
                        --------------------------------------------------------
                        eps_scf:                                        1.00E-06
                        eps_scf_history:                                0.00E+00
                        eps_diis:                                       1.00E-01
                        eps_eigval:                                     1.00E-05
                        --------------------------------------------------------
                        level_shift [a.u.]:                             0.000000
                        --------------------------------------------------------
                        Outer loop SCF in use 
                        No variables optimised in outer loop
                        eps_scf                                         1.00E-06
                        max_scf                                              500
                        No outer loop optimization
                        step_size                                       5.00E-01

 BFGS| Use rational function optimization for step estimation:                NO
 BFGS| Use model Hessian for initial guess:                                  YES
 BFGS| Restart Hessian:                                                       NO
 BFGS| Trust radius:                                                       0.189

 *******************************************************************************
 ***                     STARTING GEOMETRY OPTIMIZATION                      ***
 ***                                   BFGS                                  ***
 *******************************************************************************

 Number of electrons:                                                        216
 Number of occupied orbitals:                                                108
 Number of molecular orbitals:                                               108

 Number of orbital functions:                                                603
 Number of independent orbital functions:                                    603

 Extrapolation method: initial_guess

 *** WARNING in qs_initial_guess.F:305 :: User requested to restart the     ***
 *** wavefunction from the file named:                                      ***
 *** widom_qmof-a9be673_mepoml-geo_opt_odac_H2O-PBE_e_min-opt_0005-RESTART. ***
 *** fn. This file does not exist. Please check the existence of the file   ***
 *** or change properly the value of the keyword WFN_RESTART_FILE_NAME.     ***
 *** Calculation continues using ATOMIC GUESS.                              ***



 SCF WAVEFUNCTION OPTIMIZATION

  ----------------------------------- OT ---------------------------------------
  Minimizer      : DIIS                : direct inversion
                                         in the iterative subspace
                                         using   7 DIIS vectors
                                         safer DIIS on
  Preconditioner : FULL_KINETIC        : inversion of T + eS
  Precond_solver : DEFAULT
  stepsize       :    0.15000000                  energy_gap     :    0.00100000
  eps_taylor     :   0.10000E-15                  max_taylor     :             4
  ----------------------------------- OT ---------------------------------------

  Step     Update method      Time    Convergence         Total energy    Change
  ------------------------------------------------------------------------------
     1 OT DIIS     0.15E+00    0.2     0.02691927      -428.0722836433 -4.28E+02
     2 OT DIIS     0.15E+00    0.2     0.01777196      -433.5157254503 -5.44E+00
     3 OT DIIS     0.15E+00    0.2     0.01333432      -436.8732128008 -3.36E+00
     4 OT DIIS     0.15E+00    0.2     0.00959758      -439.6509356305 -2.78E+00
     5 OT DIIS     0.15E+00    0.2     0.00730814      -441.3395658308 -1.69E+00
     6 OT DIIS     0.15E+00    0.2     0.00548416      -442.5906784885 -1.25E+00
     7 OT DIIS     0.15E+00    0.2     0.00409139      -443.4784122764 -8.88E-01
     8 OT DIIS     0.15E+00    0.2     0.00325133      -443.9758571203 -4.97E-01
     9 OT DIIS     0.15E+00    0.2     0.00268225      -444.2843283445 -3.08E-01
    10 OT DIIS     0.15E+00    0.2     0.00219041      -444.5510500768 -2.67E-01
    11 OT DIIS     0.15E+00    0.2     0.00180614      -444.7394953144 -1.88E-01
    12 OT DIIS     0.15E+00    0.2     0.00153635      -444.8736043951 -1.34E-01
    13 OT DIIS     0.15E+00    0.2     0.00131737      -444.9726882788 -9.91E-02
    14 OT DIIS     0.15E+00    0.2     0.00114201      -445.0505590124 -7.79E-02
    15 OT DIIS     0.15E+00    0.2     0.00097064      -445.1130609816 -6.25E-02
    16 OT DIIS     0.15E+00    0.2     0.00083091      -445.1593075753 -4.62E-02
    17 OT DIIS     0.15E+00    0.2     0.00070134      -445.1956274654 -3.63E-02
    18 OT DIIS     0.15E+00    0.2     0.00059612      -445.2215068727 -2.59E-02
    19 OT DIIS     0.15E+00    0.2     0.00051309      -445.2375043740 -1.60E-02
    20 OT DIIS     0.15E+00    0.2     0.00043050      -445.2518138695 -1.43E-02
    21 OT DIIS     0.15E+00    0.2     0.00037688      -445.2597204752 -7.91E-03
    22 OT DIIS     0.15E+00    0.2     0.00031815      -445.2671337368 -7.41E-03
    23 OT DIIS     0.15E+00    0.2     0.00027043      -445.2723960510 -5.26E-03
    24 OT DIIS     0.15E+00    0.2     0.00023496      -445.2760407131 -3.64E-03
    25 OT DIIS     0.15E+00    0.2     0.00020488      -445.2790072210 -2.97E-03
    26 OT DIIS     0.15E+00    0.2     0.00017995      -445.2812295393 -2.22E-03
    27 OT DIIS     0.15E+00    0.2     0.00015905      -445.2830474921 -1.82E-03
    28 OT DIIS     0.15E+00    0.2     0.00014185      -445.2845626145 -1.52E-03
    29 OT DIIS     0.15E+00    0.2     0.00013030      -445.2855764172 -1.01E-03
    30 OT DIIS     0.15E+00    0.2     0.00012103      -445.2863908633 -8.14E-04
    31 OT DIIS     0.15E+00    0.2     0.00011110      -445.2872367086 -8.46E-04
    32 OT DIIS     0.15E+00    0.2     0.00010173      -445.2880547660 -8.18E-04
    33 OT DIIS     0.15E+00    0.2     0.00009457      -445.2886654554 -6.11E-04
    34 OT DIIS     0.15E+00    0.2     0.00008730      -445.2892755097 -6.10E-04
    35 OT DIIS     0.15E+00    0.2     0.00008099      -445.2898231365 -5.48E-04
    36 OT DIIS     0.15E+00    0.2     0.00007585      -445.2902988979 -4.76E-04
    37 OT DIIS     0.15E+00    0.2     0.00007119      -445.2907235743 -4.25E-04
    38 OT DIIS     0.15E+00    0.2     0.00006671      -445.2911209671 -3.97E-04
    39 OT DIIS     0.15E+00    0.2     0.00006265      -445.2914746017 -3.54E-04
    40 OT DIIS     0.15E+00    0.2     0.00005921      -445.2917741047 -3.00E-04
    41 OT DIIS     0.15E+00    0.2     0.00005609      -445.2920290373 -2.55E-04
    42 OT DIIS     0.15E+00    0.2     0.00005296      -445.2922748998 -2.46E-04
    43 OT DIIS     0.15E+00    0.2     0.00004961      -445.2925335182 -2.59E-04
    44 OT DIIS     0.15E+00    0.2     0.00004644      -445.2927790621 -2.46E-04
    45 OT DIIS     0.15E+00    0.2     0.00004354      -445.2929914098 -2.12E-04
    46 OT DIIS     0.15E+00    0.2     0.00004098      -445.2931693170 -1.78E-04
    47 OT DIIS     0.15E+00    0.2     0.00003864      -445.2933288515 -1.60E-04
    48 OT DIIS     0.15E+00    0.2     0.00003675      -445.2934536973 -1.25E-04
    49 OT DIIS     0.15E+00    0.2     0.00003477      -445.2935711899 -1.17E-04
    50 OT DIIS     0.15E+00    0.2     0.00003275      -445.2936828560 -1.12E-04
    51 OT DIIS     0.15E+00    0.2     0.00003080      -445.2937858394 -1.03E-04
    52 OT DIIS     0.15E+00    0.2     0.00002907      -445.2938749319 -8.91E-05
    53 OT DIIS     0.15E+00    0.2     0.00002745      -445.2939539161 -7.90E-05
    54 OT DIIS     0.15E+00    0.2     0.00002609      -445.2940174050 -6.35E-05
    55 OT DIIS     0.15E+00    0.2     0.00002482      -445.2940763078 -5.89E-05
    56 OT DIIS     0.15E+00    0.2     0.00002375      -445.2941248526 -4.85E-05
    57 OT DIIS     0.15E+00    0.2     0.00002271      -445.2941681447 -4.33E-05
    58 OT DIIS     0.15E+00    0.2     0.00002174      -445.2942067331 -3.86E-05
    59 OT DIIS     0.15E+00    0.2     0.00002082      -445.2942427426 -3.60E-05
    60 OT DIIS     0.15E+00    0.2     0.00002000      -445.2942748950 -3.22E-05
    61 OT DIIS     0.15E+00    0.2     0.00001915      -445.2943072514 -3.24E-05
    62 OT DIIS     0.15E+00    0.2     0.00001833      -445.2943381025 -3.09E-05
    63 OT DIIS     0.15E+00    0.2     0.00001757      -445.2943668383 -2.87E-05
    64 OT DIIS     0.15E+00    0.2     0.00001691      -445.2943913088 -2.45E-05
    65 OT DIIS     0.15E+00    0.2     0.00001624      -445.2944148466 -2.35E-05
    66 OT DIIS     0.15E+00    0.2     0.00001565      -445.2944348911 -2.00E-05
    67 OT DIIS     0.15E+00    0.2     0.00001505      -445.2944544345 -1.95E-05
    68 OT DIIS     0.15E+00    0.2     0.00001442      -445.2944743508 -1.99E-05
    69 OT DIIS     0.15E+00    0.2     0.00001374      -445.2944944659 -2.01E-05
    70 OT DIIS     0.15E+00    0.2     0.00001310      -445.2945131097 -1.86E-05
    71 OT DIIS     0.15E+00    0.2     0.00001251      -445.2945297734 -1.67E-05
    72 OT DIIS     0.15E+00    0.2     0.00001202      -445.2945428204 -1.30E-05
    73 OT DIIS     0.15E+00    0.2     0.00001154      -445.2945549682 -1.21E-05
    74 OT DIIS     0.15E+00    0.2     0.00001110      -445.2945655829 -1.06E-05
    75 OT DIIS     0.15E+00    0.2     0.00001068      -445.2945752182 -9.64E-06
    76 OT DIIS     0.15E+00    0.2     0.00001026      -445.2945845059 -9.29E-06
    77 OT DIIS     0.15E+00    0.2     0.00000982      -445.2945935984 -9.09E-06
    78 OT DIIS     0.15E+00    0.2     0.00000945      -445.2946012067 -7.61E-06
    79 OT DIIS     0.15E+00    0.2     0.00000913      -445.2946078526 -6.65E-06
    80 OT DIIS     0.15E+00    0.2     0.00000884      -445.2946135946 -5.74E-06
    81 OT DIIS     0.15E+00    0.2     0.00000856      -445.2946191385 -5.54E-06
    82 OT DIIS     0.15E+00    0.2     0.00000831      -445.2946241155 -4.98E-06
    83 OT DIIS     0.15E+00    0.2     0.00000807      -445.2946288364 -4.72E-06
    84 OT DIIS     0.15E+00    0.2     0.00000784      -445.2946331760 -4.34E-06
    85 OT DIIS     0.15E+00    0.2     0.00000761      -445.2946375277 -4.35E-06
    86 OT DIIS     0.15E+00    0.2     0.00000740      -445.2946417048 -4.18E-06
    87 OT DIIS     0.15E+00    0.2     0.00000720      -445.2946456400 -3.94E-06
    88 OT DIIS     0.15E+00    0.2     0.00000700      -445.2946494855 -3.85E-06
    89 OT DIIS     0.15E+00    0.2     0.00000678      -445.2946536756 -4.19E-06
    90 OT DIIS     0.15E+00    0.2     0.00000660      -445.2946572477 -3.57E-06
    91 OT DIIS     0.15E+00    0.2     0.00000642      -445.2946605794 -3.33E-06
    92 OT DIIS     0.15E+00    0.2     0.00000625      -445.2946637705 -3.19E-06
    93 OT DIIS     0.15E+00    0.2     0.00000607      -445.2946669873 -3.22E-06
    94 OT DIIS     0.15E+00    0.2     0.00000589      -445.2946701351 -3.15E-06
    95 OT DIIS     0.15E+00    0.2     0.00000571      -445.2946732461 -3.11E-06
    96 OT DIIS     0.15E+00    0.2     0.00000555      -445.2946760343 -2.79E-06
    97 OT DIIS     0.15E+00    0.2     0.00000538      -445.2946788457 -2.81E-06
    98 OT DIIS     0.15E+00    0.2     0.00000524      -445.2946811331 -2.29E-06
    99 OT DIIS     0.15E+00    0.2     0.00000512      -445.2946831039 -1.97E-06
   100 OT DIIS     0.15E+00    0.2     0.00000500      -445.2946849587 -1.85E-06
   101 OT DIIS     0.15E+00    0.2     0.00000488      -445.2946869144 -1.96E-06
   102 OT DIIS     0.15E+00    0.2     0.00000476      -445.2946886900 -1.78E-06
   103 OT DIIS     0.15E+00    0.2     0.00000465      -445.2946903830 -1.69E-06
   104 OT DIIS     0.15E+00    0.2     0.00000456      -445.2946918934 -1.51E-06
   105 OT DIIS     0.15E+00    0.2     0.00000447      -445.2946933719 -1.48E-06
   106 OT DIIS     0.15E+00    0.2     0.00000439      -445.2946946403 -1.27E-06
   107 OT DIIS     0.15E+00    0.2     0.00000432      -445.2946958895 -1.25E-06
   108 OT DIIS     0.15E+00    0.2     0.00000425      -445.2946970989 -1.21E-06
   109 OT DIIS     0.15E+00    0.2     0.00000418      -445.2946984247 -1.33E-06
   110 OT DIIS     0.15E+00    0.2     0.00000411      -445.2946996748 -1.25E-06
   111 OT DIIS     0.15E+00    0.2     0.00000405      -445.2947008573 -1.18E-06
   112 OT DIIS     0.15E+00    0.2     0.00000398      -445.2947020139 -1.16E-06
   113 OT DIIS     0.15E+00    0.2     0.00000392      -445.2947033246 -1.31E-06
   114 OT DIIS     0.15E+00    0.2     0.00000386      -445.2947045172 -1.19E-06
   115 OT DIIS     0.15E+00    0.2     0.00000380      -445.2947057330 -1.22E-06
   116 OT DIIS     0.15E+00    0.2     0.00000374      -445.2947069028 -1.17E-06
   117 OT DIIS     0.15E+00    0.2     0.00000368      -445.2947080840 -1.18E-06
   118 OT DIIS     0.15E+00    0.2     0.00000363      -445.2947091547 -1.07E-06
   119 OT DIIS     0.15E+00    0.2     0.00000358      -445.2947102133 -1.06E-06
   120 OT DIIS     0.15E+00    0.2     0.00000353      -445.2947112622 -1.05E-06
   121 OT DIIS     0.15E+00    0.2     0.00000347      -445.2947124240 -1.16E-06
   122 OT DIIS     0.15E+00    0.2     0.00000342      -445.2947134508 -1.03E-06
   123 OT DIIS     0.15E+00    0.2     0.00000338      -445.2947143679 -9.17E-07
   124 OT DIIS     0.15E+00    0.2     0.00000334      -445.2947151858 -8.18E-07
   125 OT DIIS     0.15E+00    0.2     0.00000331      -445.2947160129 -8.27E-07
   126 OT DIIS     0.15E+00    0.2     0.00000327      -445.2947167641 -7.51E-07
   127 OT DIIS     0.15E+00    0.2     0.00000324      -445.2947175283 -7.64E-07
   128 OT DIIS     0.15E+00    0.2     0.00000321      -445.2947183210 -7.93E-07
   129 OT DIIS     0.15E+00    0.2     0.00000317      -445.2947191403 -8.19E-07
   130 OT DIIS     0.15E+00    0.2     0.00000315      -445.2947198504 -7.10E-07
   131 OT DIIS     0.15E+00    0.2     0.00000312      -445.2947205139 -6.63E-07
   132 OT DIIS     0.15E+00    0.2     0.00000310      -445.2947211455 -6.32E-07
   133 OT DIIS     0.15E+00    0.2     0.00000308      -445.2947218422 -6.97E-07
   134 OT DIIS     0.15E+00    0.2     0.00000305      -445.2947225496 -7.07E-07
   135 OT DIIS     0.15E+00    0.2     0.00000303      -445.2947232537 -7.04E-07
   136 OT DIIS     0.15E+00    0.2     0.00000301      -445.2947239874 -7.34E-07
   137 OT DIIS     0.15E+00    0.2     0.00000298      -445.2947247636 -7.76E-07
   138 OT DIIS     0.15E+00    0.2     0.00000296      -445.2947254609 -6.97E-07
   139 OT DIIS     0.15E+00    0.2     0.00000294      -445.2947261602 -6.99E-07
   140 OT DIIS     0.15E+00    0.2     0.00000292      -445.2947268970 -7.37E-07
   141 OT DIIS     0.15E+00    0.2     0.00000290      -445.2947276848 -7.88E-07
   142 OT DIIS     0.15E+00    0.2     0.00000288      -445.2947284237 -7.39E-07
   143 OT DIIS     0.15E+00    0.2     0.00000286      -445.2947291251 -7.01E-07
   144 OT DIIS     0.15E+00    0.2     0.00000284      -445.2947298117 -6.87E-07
   145 OT DIIS     0.15E+00    0.2     0.00000282      -445.2947305258 -7.14E-07
   146 OT DIIS     0.15E+00    0.2     0.00000280      -445.2947312083 -6.83E-07
   147 OT DIIS     0.15E+00    0.2     0.00000278      -445.2947318671 -6.59E-07
   148 OT DIIS     0.15E+00    0.2     0.00000277      -445.2947325212 -6.54E-07
   149 OT DIIS     0.15E+00    0.2     0.00000275      -445.2947331831 -6.62E-07
   150 OT DIIS     0.15E+00    0.2     0.00000274      -445.2947337446 -5.61E-07
   151 OT DIIS     0.15E+00    0.2     0.00000272      -445.2947342705 -5.26E-07
   152 OT DIIS     0.15E+00    0.2     0.00000271      -445.2947348264 -5.56E-07
   153 OT DIIS     0.15E+00    0.2     0.00000269      -445.2947354134 -5.87E-07
   154 OT DIIS     0.15E+00    0.2     0.00000268      -445.2947359933 -5.80E-07
   155 OT DIIS     0.15E+00    0.2     0.00000267      -445.2947365652 -5.72E-07
   156 OT DIIS     0.15E+00    0.2     0.00000266      -445.2947371072 -5.42E-07
   157 OT DIIS     0.15E+00    0.2     0.00000265      -445.2947376588 -5.52E-07
   158 OT DIIS     0.15E+00    0.2     0.00000264      -445.2947381743 -5.16E-07
   159 OT DIIS     0.15E+00    0.2     0.00000263      -445.2947386858 -5.11E-07
   160 OT DIIS     0.15E+00    0.2     0.00000261      -445.2947392692 -5.83E-07
   161 OT DIIS     0.15E+00    0.2     0.00000260      -445.2947399153 -6.46E-07
   162 OT DIIS     0.15E+00    0.2     0.00000259      -445.2947405253 -6.10E-07
   163 OT DIIS     0.15E+00    0.2     0.00000258      -445.2947411196 -5.94E-07
   164 OT DIIS     0.15E+00    0.2     0.00000257      -445.2947417066 -5.87E-07
   165 OT DIIS     0.15E+00    0.2     0.00000256      -445.2947423140 -6.07E-07
   166 OT DIIS     0.15E+00    0.2     0.00000254      -445.2947429032 -5.89E-07
   167 OT DIIS     0.15E+00    0.2     0.00000253      -445.2947435042 -6.01E-07
   168 OT DIIS     0.15E+00    0.2     0.00000252      -445.2947441267 -6.22E-07
   169 OT DIIS     0.15E+00    0.2     0.00000251      -445.2947447634 -6.37E-07
   170 OT DIIS     0.15E+00    0.2     0.00000250      -445.2947453419 -5.78E-07
   171 OT DIIS     0.15E+00    0.2     0.00000249      -445.2947458801 -5.38E-07
   172 OT DIIS     0.15E+00    0.2     0.00000248      -445.2947464211 -5.41E-07
   173 OT DIIS     0.15E+00    0.2     0.00000247      -445.2947469964 -5.75E-07
   174 OT DIIS     0.15E+00    0.2     0.00000246      -445.2947475179 -5.22E-07
   175 OT DIIS     0.15E+00    0.2     0.00000245      -445.2947480180 -5.00E-07
   176 OT DIIS     0.15E+00    0.2     0.00000244      -445.2947485066 -4.89E-07
   177 OT DIIS     0.15E+00    0.2     0.00000243      -445.2947489786 -4.72E-07
   178 OT DIIS     0.15E+00    0.2     0.00000242      -445.2947494229 -4.44E-07
   179 OT DIIS     0.15E+00    0.2     0.00000241      -445.2947498726 -4.50E-07
   180 OT DIIS     0.15E+00    0.2     0.00000241      -445.2947503319 -4.59E-07
   181 OT DIIS     0.15E+00    0.2     0.00000240      -445.2947508242 -4.92E-07
   182 OT DIIS     0.15E+00    0.2     0.00000239      -445.2947512697 -4.46E-07
   183 OT DIIS     0.15E+00    0.2     0.00000238      -445.2947516834 -4.14E-07
   184 OT DIIS     0.15E+00    0.2     0.00000237      -445.2947521053 -4.22E-07
   185 OT DIIS     0.15E+00    0.2     0.00000237      -445.2947525576 -4.52E-07
   186 OT DIIS     0.15E+00    0.2     0.00000236      -445.2947530124 -4.55E-07
   187 OT DIIS     0.15E+00    0.2     0.00000235      -445.2947535032 -4.91E-07
   188 OT DIIS     0.15E+00    0.2     0.00000234      -445.2947540129 -5.10E-07
   189 OT DIIS     0.15E+00    0.2     0.00000233      -445.2947545346 -5.22E-07
   190 OT DIIS     0.15E+00    0.2     0.00000233      -445.2947550016 -4.67E-07
   191 OT DIIS     0.15E+00    0.2     0.00000232      -445.2947554585 -4.57E-07
   192 OT DIIS     0.15E+00    0.2     0.00000231      -445.2947559335 -4.75E-07
   193 OT DIIS     0.15E+00    0.2     0.00000230      -445.2947564597 -5.26E-07
   194 OT DIIS     0.15E+00    0.2     0.00000229      -445.2947569893 -5.30E-07
   195 OT DIIS     0.15E+00    0.2     0.00000228      -445.2947575095 -5.20E-07
   196 OT DIIS     0.15E+00    0.2     0.00000227      -445.2947580131 -5.04E-07
   197 OT DIIS     0.15E+00    0.2     0.00000227      -445.2947585122 -4.99E-07
   198 OT DIIS     0.15E+00    0.2     0.00000226      -445.2947589404 -4.28E-07
   199 OT DIIS     0.15E+00    0.2     0.00000225      -445.2947593681 -4.28E-07
   200 OT DIIS     0.15E+00    0.2     0.00000224      -445.2947598161 -4.48E-07
   201 OT DIIS     0.15E+00    0.2     0.00000223      -445.2947602766 -4.60E-07
   202 OT DIIS     0.15E+00    0.2     0.00000223      -445.2947607109 -4.34E-07
   203 OT DIIS     0.15E+00    0.2     0.00000222      -445.2947611175 -4.07E-07
   204 OT DIIS     0.15E+00    0.2     0.00000221      -445.2947614903 -3.73E-07
   205 OT DIIS     0.15E+00    0.2     0.00000220      -445.2947618686 -3.78E-07
   206 OT DIIS     0.15E+00    0.2     0.00000220      -445.2947622163 -3.48E-07
   207 OT DIIS     0.15E+00    0.2     0.00000219      -445.2947625627 -3.46E-07
   208 OT DIIS     0.15E+00    0.2     0.00000218      -445.2947629290 -3.66E-07
   209 OT DIIS     0.15E+00    0.2     0.00000218      -445.2947633043 -3.75E-07
   210 OT DIIS     0.15E+00    0.2     0.00000217      -445.2947636461 -3.42E-07
   211 OT DIIS     0.15E+00    0.2     0.00000217      -445.2947639859 -3.40E-07
   212 OT DIIS     0.15E+00    0.2     0.00000216      -445.2947643298 -3.44E-07
   213 OT DIIS     0.15E+00    0.2     0.00000215      -445.2947646966 -3.67E-07
   214 OT DIIS     0.15E+00    0.2     0.00000215      -445.2947650581 -3.62E-07
   215 OT DIIS     0.15E+00    0.2     0.00000214      -445.2947654266 -3.68E-07
   216 OT DIIS     0.15E+00    0.2     0.00000213      -445.2947657969 -3.70E-07
   217 OT DIIS     0.15E+00    0.2     0.00000213      -445.2947661815 -3.85E-07
   218 OT DIIS     0.15E+00    0.2     0.00000212      -445.2947665515 -3.70E-07
   219 OT DIIS     0.15E+00    0.2     0.00000211      -445.2947669272 -3.76E-07
   220 OT DIIS     0.15E+00    0.2     0.00000211      -445.2947673334 -4.06E-07
   221 OT DIIS     0.15E+00    0.2     0.00000210      -445.2947677687 -4.35E-07
   222 OT DIIS     0.15E+00    0.2     0.00000209      -445.2947681611 -3.92E-07
   223 OT DIIS     0.15E+00    0.2     0.00000209      -445.2947685421 -3.81E-07
   224 OT DIIS     0.15E+00    0.2     0.00000208      -445.2947689099 -3.68E-07
   225 OT DIIS     0.15E+00    0.2     0.00000207      -445.2947692752 -3.65E-07
   226 OT DIIS     0.15E+00    0.2     0.00000207      -445.2947696411 -3.66E-07
   227 OT DIIS     0.15E+00    0.2     0.00000206      -445.2947700124 -3.71E-07
   228 OT DIIS     0.15E+00    0.2     0.00000205      -445.2947703864 -3.74E-07
   229 OT DIIS     0.15E+00    0.2     0.00000205      -445.2947707627 -3.76E-07
   230 OT DIIS     0.15E+00    0.2     0.00000204      -445.2947710788 -3.16E-07
   231 OT DIIS     0.15E+00    0.2     0.00000203      -445.2947713665 -2.88E-07
   232 OT DIIS     0.15E+00    0.2     0.00000203      -445.2947716571 -2.91E-07
   233 OT DIIS     0.15E+00    0.2     0.00000202      -445.2947719587 -3.02E-07
   234 OT DIIS     0.15E+00    0.2     0.00000202      -445.2947722624 -3.04E-07
   235 OT DIIS     0.15E+00    0.2     0.00000201      -445.2947725742 -3.12E-07
   236 OT DIIS     0.15E+00    0.2     0.00000200      -445.2947728778 -3.04E-07
   237 OT DIIS     0.15E+00    0.2     0.00000200      -445.2947731697 -2.92E-07
   238 OT DIIS     0.15E+00    0.2     0.00000199      -445.2947734312 -2.62E-07
   239 OT DIIS     0.15E+00    0.2     0.00000199      -445.2947736909 -2.60E-07
   240 OT DIIS     0.15E+00    0.2     0.00000198      -445.2947739736 -2.83E-07
   241 OT DIIS     0.15E+00    0.2     0.00000198      -445.2947742876 -3.14E-07
   242 OT DIIS     0.15E+00    0.2     0.00000197      -445.2947746031 -3.15E-07
   243 OT DIIS     0.15E+00    0.2     0.00000197      -445.2947749110 -3.08E-07
   244 OT DIIS     0.15E+00    0.2     0.00000196      -445.2947752188 -3.08E-07
   245 OT DIIS     0.15E+00    0.2     0.00000195      -445.2947755270 -3.08E-07
   246 OT DIIS     0.15E+00    0.2     0.00000195      -445.2947758182 -2.91E-07
   247 OT DIIS     0.15E+00    0.2     0.00000194      -445.2947761283 -3.10E-07
   248 OT DIIS     0.15E+00    0.2     0.00000194      -445.2947764606 -3.32E-07
   249 OT DIIS     0.15E+00    0.2     0.00000193      -445.2947767979 -3.37E-07
   250 OT DIIS     0.15E+00    0.2     0.00000192      -445.2947771193 -3.21E-07
   251 OT DIIS     0.15E+00    0.2     0.00000192      -445.2947774183 -2.99E-07
   252 OT DIIS     0.15E+00    0.2     0.00000191      -445.2947777141 -2.96E-07
   253 OT DIIS     0.15E+00    0.2     0.00000191      -445.2947780201 -3.06E-07
   254 OT DIIS     0.15E+00    0.2     0.00000190      -445.2947783084 -2.88E-07
   255 OT DIIS     0.15E+00    0.2     0.00000189      -445.2947785907 -2.82E-07
   256 OT DIIS     0.15E+00    0.2     0.00000189      -445.2947788748 -2.84E-07
   257 OT DIIS     0.15E+00    0.2     0.00000188      -445.2947791416 -2.67E-07
   258 OT DIIS     0.15E+00    0.2     0.00000188      -445.2947793855 -2.44E-07
   259 OT DIIS     0.15E+00    0.2     0.00000187      -445.2947796248 -2.39E-07
   260 OT DIIS     0.15E+00    0.2     0.00000187      -445.2947798723 -2.47E-07
   261 OT DIIS     0.15E+00    0.2     0.00000186      -445.2947801258 -2.54E-07
   262 OT DIIS     0.15E+00    0.2     0.00000186      -445.2947803664 -2.41E-07
   263 OT DIIS     0.15E+00    0.2     0.00000185      -445.2947805918 -2.25E-07
   264 OT DIIS     0.15E+00    0.2     0.00000185      -445.2947808148 -2.23E-07
   265 OT DIIS     0.15E+00    0.2     0.00000184      -445.2947810396 -2.25E-07
   266 OT DIIS     0.15E+00    0.2     0.00000184      -445.2947812661 -2.26E-07
   267 OT DIIS     0.15E+00    0.2     0.00000183      -445.2947815033 -2.37E-07
   268 OT DIIS     0.15E+00    0.2     0.00000183      -445.2947817673 -2.64E-07
   269 OT DIIS     0.15E+00    0.2     0.00000182      -445.2947820345 -2.67E-07
   270 OT DIIS     0.15E+00    0.2     0.00000182      -445.2947822798 -2.45E-07
   271 OT DIIS     0.15E+00    0.2     0.00000181      -445.2947825196 -2.40E-07
   272 OT DIIS     0.15E+00    0.2     0.00000181      -445.2947827676 -2.48E-07
   273 OT DIIS     0.15E+00    0.2     0.00000180      -445.2947830272 -2.60E-07
   274 OT DIIS     0.15E+00    0.2     0.00000180      -445.2947833060 -2.79E-07
   275 OT DIIS     0.15E+00    0.2     0.00000179      -445.2947835858 -2.80E-07
   276 OT DIIS     0.15E+00    0.2     0.00000179      -445.2947838736 -2.88E-07
   277 OT DIIS     0.15E+00    0.2     0.00000178      -445.2947841523 -2.79E-07
   278 OT DIIS     0.15E+00    0.2     0.00000178      -445.2947843953 -2.43E-07
   279 OT DIIS     0.15E+00    0.2     0.00000177      -445.2947846296 -2.34E-07
   280 OT DIIS     0.15E+00    0.2     0.00000177      -445.2947848810 -2.51E-07
   281 OT DIIS     0.15E+00    0.2     0.00000176      -445.2947851342 -2.53E-07
   282 OT DIIS     0.15E+00    0.2     0.00000175      -445.2947853856 -2.51E-07
   283 OT DIIS     0.15E+00    0.2     0.00000175      -445.2947856227 -2.37E-07
   284 OT DIIS     0.15E+00    0.2     0.00000174      -445.2947858464 -2.24E-07
   285 OT DIIS     0.15E+00    0.2     0.00000174      -445.2947860546 -2.08E-07
   286 OT DIIS     0.15E+00    0.2     0.00000174      -445.2947862471 -1.92E-07
   287 OT DIIS     0.15E+00    0.2     0.00000173      -445.2947864366 -1.90E-07
   288 OT DIIS     0.15E+00    0.2     0.00000173      -445.2947866433 -2.07E-07
   289 OT DIIS     0.15E+00    0.2     0.00000172      -445.2947868521 -2.09E-07
   290 OT DIIS     0.15E+00    0.2     0.00000172      -445.2947870497 -1.98E-07
   291 OT DIIS     0.15E+00    0.2     0.00000171      -445.2947872351 -1.85E-07
   292 OT DIIS     0.15E+00    0.2     0.00000171      -445.2947874252 -1.90E-07
   293 OT DIIS     0.15E+00    0.2     0.00000170      -445.2947876156 -1.90E-07
   294 OT DIIS     0.15E+00    0.2     0.00000170      -445.2947878100 -1.94E-07
   295 OT DIIS     0.15E+00    0.2     0.00000170      -445.2947880145 -2.04E-07
   296 OT DIIS     0.15E+00    0.2     0.00000169      -445.2947882322 -2.18E-07
   297 OT DIIS     0.15E+00    0.2     0.00000169      -445.2947884463 -2.14E-07
   298 OT DIIS     0.15E+00    0.2     0.00000168      -445.2947886558 -2.09E-07
   299 OT DIIS     0.15E+00    0.2     0.00000168      -445.2947888582 -2.02E-07
   300 OT DIIS     0.15E+00    0.2     0.00000167      -445.2947890810 -2.23E-07
   301 OT DIIS     0.15E+00    0.2     0.00000167      -445.2947893157 -2.35E-07
   302 OT DIIS     0.15E+00    0.2     0.00000166      -445.2947895448 -2.29E-07
   303 OT DIIS     0.15E+00    0.2     0.00000166      -445.2947897683 -2.24E-07
   304 OT DIIS     0.15E+00    0.2     0.00000165      -445.2947899919 -2.24E-07
   305 OT DIIS     0.15E+00    0.2     0.00000165      -445.2947901994 -2.07E-07
   306 OT DIIS     0.15E+00    0.2     0.00000164      -445.2947904030 -2.04E-07
   307 OT DIIS     0.15E+00    0.2     0.00000164      -445.2947906064 -2.03E-07
   308 OT DIIS     0.15E+00    0.2     0.00000163      -445.2947908220 -2.16E-07
   309 OT DIIS     0.15E+00    0.2     0.00000163      -445.2947910341 -2.12E-07
   310 OT DIIS     0.15E+00    0.2     0.00000163      -445.2947912250 -1.91E-07
   311 OT DIIS     0.15E+00    0.2     0.00000162      -445.2947913953 -1.70E-07
   312 OT DIIS     0.15E+00    0.2     0.00000162      -445.2947915635 -1.68E-07
   313 OT DIIS     0.15E+00    0.2     0.00000161      -445.2947917284 -1.65E-07
   314 OT DIIS     0.15E+00    0.2     0.00000161      -445.2947918971 -1.69E-07
   315 OT DIIS     0.15E+00    0.2     0.00000160      -445.2947920698 -1.73E-07
   316 OT DIIS     0.15E+00    0.2     0.00000160      -445.2947922516 -1.82E-07
   317 OT DIIS     0.15E+00    0.2     0.00000160      -445.2947924227 -1.71E-07
   318 OT DIIS     0.15E+00    0.2     0.00000159      -445.2947925782 -1.56E-07
   319 OT DIIS     0.15E+00    0.2     0.00000159      -445.2947927298 -1.52E-07
   320 OT DIIS     0.15E+00    0.2     0.00000158      -445.2947928938 -1.64E-07
   321 OT DIIS     0.15E+00    0.2     0.00000158      -445.2947930687 -1.75E-07
   322 OT DIIS     0.15E+00    0.2     0.00000158      -445.2947932563 -1.88E-07
   323 OT DIIS     0.15E+00    0.2     0.00000157      -445.2947934411 -1.85E-07
   324 OT DIIS     0.15E+00    0.2     0.00000157      -445.2947936320 -1.91E-07
   325 OT DIIS     0.15E+00    0.2     0.00000156      -445.2947938164 -1.84E-07
   326 OT DIIS     0.15E+00    0.2     0.00000156      -445.2947939902 -1.74E-07
   327 OT DIIS     0.15E+00    0.2     0.00000156      -445.2947941706 -1.80E-07
   328 OT DIIS     0.15E+00    0.2     0.00000155      -445.2947943699 -1.99E-07
   329 OT DIIS     0.15E+00    0.2     0.00000155      -445.2947945679 -1.98E-07
   330 OT DIIS     0.15E+00    0.2     0.00000154      -445.2947947619 -1.94E-07
   331 OT DIIS     0.15E+00    0.2     0.00000154      -445.2947949418 -1.80E-07
   332 OT DIIS     0.15E+00    0.2     0.00000153      -445.2947951175 -1.76E-07
   333 OT DIIS     0.15E+00    0.2     0.00000153      -445.2947952885 -1.71E-07
   334 OT DIIS     0.15E+00    0.2     0.00000152      -445.2947954538 -1.65E-07
   335 OT DIIS     0.15E+00    0.2     0.00000152      -445.2947956169 -1.63E-07
   336 OT DIIS     0.15E+00    0.2     0.00000152      -445.2947957848 -1.68E-07
   337 OT DIIS     0.15E+00    0.2     0.00000151      -445.2947959405 -1.56E-07
   338 OT DIIS     0.15E+00    0.2     0.00000151      -445.2947960819 -1.41E-07
   339 OT DIIS     0.15E+00    0.2     0.00000150      -445.2947962161 -1.34E-07
   340 OT DIIS     0.15E+00    0.2     0.00000150      -445.2947963563 -1.40E-07
   341 OT DIIS     0.15E+00    0.2     0.00000150      -445.2947964983 -1.42E-07
   342 OT DIIS     0.15E+00    0.2     0.00000149      -445.2947966407 -1.42E-07
   343 OT DIIS     0.15E+00    0.2     0.00000149      -445.2947967805 -1.40E-07
   344 OT DIIS     0.15E+00    0.2     0.00000149      -445.2947969195 -1.39E-07
   345 OT DIIS     0.15E+00    0.2     0.00000148      -445.2947970535 -1.34E-07
   346 OT DIIS     0.15E+00    0.2     0.00000148      -445.2947971878 -1.34E-07
   347 OT DIIS     0.15E+00    0.2     0.00000148      -445.2947973275 -1.40E-07
   348 OT DIIS     0.15E+00    0.2     0.00000147      -445.2947974873 -1.60E-07
   349 OT DIIS     0.15E+00    0.2     0.00000147      -445.2947976538 -1.66E-07
   350 OT DIIS     0.15E+00    0.2     0.00000146      -445.2947978131 -1.59E-07
   351 OT DIIS     0.15E+00    0.2     0.00000146      -445.2947979682 -1.55E-07
   352 OT DIIS     0.15E+00    0.2     0.00000146      -445.2947981237 -1.56E-07
   353 OT DIIS     0.15E+00    0.2     0.00000145      -445.2947982767 -1.53E-07
   354 OT DIIS     0.15E+00    0.2     0.00000145      -445.2947984383 -1.62E-07
   355 OT DIIS     0.15E+00    0.2     0.00000145      -445.2947986056 -1.67E-07
   356 OT DIIS     0.15E+00    0.2     0.00000144      -445.2947987813 -1.76E-07
   357 OT DIIS     0.15E+00    0.2     0.00000144      -445.2947989505 -1.69E-07
   358 OT DIIS     0.15E+00    0.2     0.00000143      -445.2947990993 -1.49E-07
   359 OT DIIS     0.15E+00    0.2     0.00000143      -445.2947992372 -1.38E-07
   360 OT DIIS     0.15E+00    0.2     0.00000143      -445.2947993771 -1.40E-07
   361 OT DIIS     0.15E+00    0.2     0.00000142      -445.2947995160 -1.39E-07
   362 OT DIIS     0.15E+00    0.2     0.00000142      -445.2947996561 -1.40E-07
   363 OT DIIS     0.15E+00    0.2     0.00000141      -445.2947997935 -1.37E-07
   364 OT DIIS     0.15E+00    0.2     0.00000141      -445.2947999265 -1.33E-07
   365 OT DIIS     0.15E+00    0.2     0.00000141      -445.2948000481 -1.22E-07
   366 OT DIIS     0.15E+00    0.2     0.00000140      -445.2948001589 -1.11E-07
   367 OT DIIS     0.15E+00    0.2     0.00000140      -445.2948002699 -1.11E-07
   368 OT DIIS     0.15E+00    0.2     0.00000140      -445.2948003894 -1.19E-07
   369 OT DIIS     0.15E+00    0.2     0.00000139      -445.2948005134 -1.24E-07
   370 OT DIIS     0.15E+00    0.2     0.00000139      -445.2948006375 -1.24E-07
   371 OT DIIS     0.15E+00    0.2     0.00000139      -445.2948007574 -1.20E-07
   372 OT DIIS     0.15E+00    0.2     0.00000138      -445.2948008790 -1.22E-07
   373 OT DIIS     0.15E+00    0.2     0.00000138      -445.2948010008 -1.22E-07
   374 OT DIIS     0.15E+00    0.2     0.00000138      -445.2948011233 -1.23E-07
   375 OT DIIS     0.15E+00    0.2     0.00000137      -445.2948012565 -1.33E-07
   376 OT DIIS     0.15E+00    0.2     0.00000137      -445.2948013992 -1.43E-07
   377 OT DIIS     0.15E+00    0.2     0.00000137      -445.2948015397 -1.41E-07
   378 OT DIIS     0.15E+00    0.2     0.00000136      -445.2948016756 -1.36E-07
   379 OT DIIS     0.15E+00    0.2     0.00000136      -445.2948018074 -1.32E-07
   380 OT DIIS     0.15E+00    0.2     0.00000136      -445.2948019441 -1.37E-07
   381 OT DIIS     0.15E+00    0.2     0.00000135      -445.2948020857 -1.42E-07
   382 OT DIIS     0.15E+00    0.2     0.00000135      -445.2948022248 -1.39E-07
   383 OT DIIS     0.15E+00    0.2     0.00000134      -445.2948023623 -1.37E-07
   384 OT DIIS     0.15E+00    0.2     0.00000134      -445.2948024958 -1.34E-07
   385 OT DIIS     0.15E+00    0.2     0.00000134      -445.2948026177 -1.22E-07
   386 OT DIIS     0.15E+00    0.2     0.00000133      -445.2948027311 -1.13E-07
   387 OT DIIS     0.15E+00    0.2     0.00000133      -445.2948028449 -1.14E-07
   388 OT DIIS     0.15E+00    0.2     0.00000133      -445.2948029642 -1.19E-07
   389 OT DIIS     0.15E+00    0.2     0.00000132      -445.2948030835 -1.19E-07
   390 OT DIIS     0.15E+00    0.2     0.00000132      -445.2948031943 -1.11E-07
   391 OT DIIS     0.15E+00    0.2     0.00000132      -445.2948032972 -1.03E-07
   392 OT DIIS     0.15E+00    0.2     0.00000131      -445.2948033946 -9.74E-08
   393 OT DIIS     0.15E+00    0.2     0.00000131      -445.2948034903 -9.56E-08
   394 OT DIIS     0.15E+00    0.2     0.00000131      -445.2948035890 -9.87E-08
   395 OT DIIS     0.15E+00    0.2     0.00000131      -445.2948036954 -1.06E-07
   396 OT DIIS     0.15E+00    0.2     0.00000130      -445.2948038114 -1.16E-07
   397 OT DIIS     0.15E+00    0.2     0.00000130      -445.2948039262 -1.15E-07
   398 OT DIIS     0.15E+00    0.2     0.00000130      -445.2948040314 -1.05E-07
   399 OT DIIS     0.15E+00    0.2     0.00000129      -445.2948041362 -1.05E-07
   400 OT DIIS     0.15E+00    0.2     0.00000129      -445.2948042440 -1.08E-07
   401 OT DIIS     0.15E+00    0.2     0.00000129      -445.2948043583 -1.14E-07
   402 OT DIIS     0.15E+00    0.2     0.00000128      -445.2948044821 -1.24E-07
   403 OT DIIS     0.15E+00    0.2     0.00000128      -445.2948046105 -1.28E-07
   404 OT DIIS     0.15E+00    0.2     0.00000128      -445.2948047403 -1.30E-07
   405 OT DIIS     0.15E+00    0.2     0.00000127      -445.2948048643 -1.24E-07
   406 OT DIIS     0.15E+00    0.2     0.00000127      -445.2948049763 -1.12E-07
   407 OT DIIS     0.15E+00    0.2     0.00000127      -445.2948050894 -1.13E-07
   408 OT DIIS     0.15E+00    0.2     0.00000126      -445.2948052078 -1.18E-07
   409 OT DIIS     0.15E+00    0.2     0.00000126      -445.2948053267 -1.19E-07
   410 OT DIIS     0.15E+00    0.2     0.00000126      -445.2948054424 -1.16E-07
   411 OT DIIS     0.15E+00    0.2     0.00000125      -445.2948055519 -1.09E-07
   412 OT DIIS     0.15E+00    0.2     0.00000125      -445.2948056544 -1.03E-07
   413 OT DIIS     0.15E+00    0.2     0.00000125      -445.2948057504 -9.61E-08
   414 OT DIIS     0.15E+00    0.2     0.00000124      -445.2948058411 -9.07E-08
   415 OT DIIS     0.15E+00    0.2     0.00000124      -445.2948059340 -9.29E-08
   416 OT DIIS     0.15E+00    0.2     0.00000124      -445.2948060293 -9.53E-08
   417 OT DIIS     0.15E+00    0.2     0.00000123      -445.2948061221 -9.29E-08
   418 OT DIIS     0.15E+00    0.2     0.00000123      -445.2948062086 -8.65E-08
   419 OT DIIS     0.15E+00    0.2     0.00000123      -445.2948062923 -8.37E-08
   420 OT DIIS     0.15E+00    0.2     0.00000123      -445.2948063784 -8.60E-08
   421 OT DIIS     0.15E+00    0.2     0.00000122      -445.2948064677 -8.93E-08
   422 OT DIIS     0.15E+00    0.2     0.00000122      -445.2948065594 -9.18E-08
   423 OT DIIS     0.15E+00    0.2     0.00000122      -445.2948066572 -9.77E-08
   424 OT DIIS     0.15E+00    0.2     0.00000122      -445.2948067556 -9.84E-08
   425 OT DIIS     0.15E+00    0.2     0.00000121      -445.2948068517 -9.61E-08
   426 OT DIIS     0.15E+00    0.2     0.00000121      -445.2948069463 -9.46E-08
   427 OT DIIS     0.15E+00    0.2     0.00000121      -445.2948070448 -9.85E-08
   428 OT DIIS     0.15E+00    0.2     0.00000120      -445.2948071527 -1.08E-07
   429 OT DIIS     0.15E+00    0.2     0.00000120      -445.2948072662 -1.13E-07
   430 OT DIIS     0.15E+00    0.2     0.00000120      -445.2948073756 -1.09E-07
   431 OT DIIS     0.15E+00    0.2     0.00000119      -445.2948074828 -1.07E-07
   432 OT DIIS     0.15E+00    0.2     0.00000119      -445.2948075848 -1.02E-07
   433 OT DIIS     0.15E+00    0.2     0.00000119      -445.2948076817 -9.69E-08
   434 OT DIIS     0.15E+00    0.2     0.00000118      -445.2948077780 -9.63E-08
   435 OT DIIS     0.15E+00    0.2     0.00000118      -445.2948078780 -1.00E-07
   436 OT DIIS     0.15E+00    0.2     0.00000118      -445.2948079813 -1.03E-07
   437 OT DIIS     0.15E+00    0.2     0.00000117      -445.2948080797 -9.84E-08
   438 OT DIIS     0.15E+00    0.2     0.00000117      -445.2948081661 -8.64E-08
   439 OT DIIS     0.15E+00    0.2     0.00000117      -445.2948082459 -7.98E-08
   440 OT DIIS     0.15E+00    0.2     0.00000117      -445.2948083228 -7.69E-08
   441 OT DIIS     0.15E+00    0.2     0.00000116      -445.2948084002 -7.74E-08
   442 OT DIIS     0.15E+00    0.2     0.00000116      -445.2948084805 -8.03E-08
   443 OT DIIS     0.15E+00    0.2     0.00000116      -445.2948085636 -8.31E-08
   444 OT DIIS     0.15E+00    0.2     0.00000116      -445.2948086472 -8.36E-08
   445 OT DIIS     0.15E+00    0.2     0.00000115      -445.2948087256 -7.84E-08
   446 OT DIIS     0.15E+00    0.2     0.00000115      -445.2948087976 -7.20E-08
   447 OT DIIS     0.15E+00    0.2     0.00000115      -445.2948088726 -7.50E-08
   448 OT DIIS     0.15E+00    0.2     0.00000115      -445.2948089531 -8.06E-08
   449 OT DIIS     0.15E+00    0.2     0.00000114      -445.2948090396 -8.65E-08
   450 OT DIIS     0.15E+00    0.2     0.00000114      -445.2948091301 -9.06E-08
   451 OT DIIS     0.15E+00    0.2     0.00000114      -445.2948092206 -9.05E-08
   452 OT DIIS     0.15E+00    0.2     0.00000113      -445.2948093107 -9.01E-08
   453 OT DIIS     0.15E+00    0.2     0.00000113      -445.2948093986 -8.79E-08
   454 OT DIIS     0.15E+00    0.2     0.00000113      -445.2948094845 -8.59E-08
   455 OT DIIS     0.15E+00    0.2     0.00000113      -445.2948095769 -9.24E-08
   456 OT DIIS     0.15E+00    0.2     0.00000112      -445.2948096744 -9.76E-08
   457 OT DIIS     0.15E+00    0.2     0.00000112      -445.2948097698 -9.53E-08
   458 OT DIIS     0.15E+00    0.2     0.00000112      -445.2948098595 -8.97E-08
   459 OT DIIS     0.15E+00    0.2     0.00000111      -445.2948099439 -8.44E-08
   460 OT DIIS     0.15E+00    0.2     0.00000111      -445.2948100261 -8.22E-08
   461 OT DIIS     0.15E+00    0.2     0.00000111      -445.2948101067 -8.06E-08
   462 OT DIIS     0.15E+00    0.2     0.00000111      -445.2948101858 -7.90E-08
   463 OT DIIS     0.15E+00    0.2     0.00000110      -445.2948102650 -7.92E-08
   464 OT DIIS     0.15E+00    0.2     0.00000110      -445.2948103418 -7.68E-08
   465 OT DIIS     0.15E+00    0.2     0.00000110      -445.2948104120 -7.02E-08
   466 OT DIIS     0.15E+00    0.2     0.00000109      -445.2948104767 -6.47E-08
   467 OT DIIS     0.15E+00    0.2     0.00000109      -445.2948105411 -6.44E-08
   468 OT DIIS     0.15E+00    0.2     0.00000109      -445.2948106099 -6.88E-08
   469 OT DIIS     0.15E+00    0.2     0.00000109      -445.2948106805 -7.06E-08
   470 OT DIIS     0.15E+00    0.2     0.00000109      -445.2948107507 -7.03E-08
   471 OT DIIS     0.15E+00    0.2     0.00000108      -445.2948108207 -6.99E-08
   472 OT DIIS     0.15E+00    0.2     0.00000108      -445.2948108888 -6.82E-08
   473 OT DIIS     0.15E+00    0.2     0.00000108      -445.2948109557 -6.69E-08
   474 OT DIIS     0.15E+00    0.2     0.00000108      -445.2948110256 -6.99E-08
   475 OT DIIS     0.15E+00    0.2     0.00000107      -445.2948111017 -7.61E-08
   476 OT DIIS     0.15E+00    0.2     0.00000107      -445.2948111863 -8.46E-08
   477 OT DIIS     0.15E+00    0.2     0.00000107      -445.2948112714 -8.51E-08
   478 OT DIIS     0.15E+00    0.2     0.00000107      -445.2948113515 -8.01E-08
   479 OT DIIS     0.15E+00    0.2     0.00000106      -445.2948114297 -7.82E-08
   480 OT DIIS     0.15E+00    0.2     0.00000106      -445.2948115077 -7.80E-08
   481 OT DIIS     0.15E+00    0.2     0.00000106      -445.2948115857 -7.80E-08
   482 OT DIIS     0.15E+00    0.2     0.00000105      -445.2948116678 -8.21E-08
   483 OT DIIS     0.15E+00    0.2     0.00000105      -445.2948117518 -8.40E-08
   484 OT DIIS     0.15E+00    0.2     0.00000105      -445.2948118357 -8.40E-08
   485 OT DIIS     0.15E+00    0.2     0.00000105      -445.2948119120 -7.62E-08
   486 OT DIIS     0.15E+00    0.2     0.00000104      -445.2948119792 -6.72E-08
   487 OT DIIS     0.15E+00    0.2     0.00000104      -445.2948120437 -6.46E-08
   488 OT DIIS     0.15E+00    0.2     0.00000104      -445.2948121095 -6.58E-08
   489 OT DIIS     0.15E+00    0.2     0.00000104      -445.2948121753 -6.57E-08
   490 OT DIIS     0.15E+00    0.2     0.00000103      -445.2948122412 -6.59E-08
   491 OT DIIS     0.15E+00    0.2     0.00000103      -445.2948123045 -6.33E-08
   492 OT DIIS     0.15E+00    0.2     0.00000103      -445.2948123653 -6.08E-08
   493 OT DIIS     0.15E+00    0.2     0.00000103      -445.2948124212 -5.59E-08
   494 OT DIIS     0.15E+00    0.2     0.00000102      -445.2948124756 -5.43E-08
   495 OT DIIS     0.15E+00    0.2     0.00000102      -445.2948125336 -5.80E-08
   496 OT DIIS     0.15E+00    0.2     0.00000102      -445.2948125967 -6.32E-08
   497 OT DIIS     0.15E+00    0.2     0.00000102      -445.2948126608 -6.41E-08
   498 OT DIIS     0.15E+00    0.2     0.00000101      -445.2948127248 -6.41E-08
   499 OT DIIS     0.15E+00    0.2     0.00000101      -445.2948127874 -6.26E-08
   500 OT DIIS     0.15E+00    0.2     0.00000101      -445.2948128522 -6.48E-08

  Leaving inner SCF loop after reaching   500 steps.


  Electronic density on regular grids:       -215.9999999995        0.0000000005
  Core density on regular grids:              215.9999999999       -0.0000000001
  Total charge density on r-space grids:        0.0000000004
  Total charge density g-space grids:           0.0000000004

  Overlap energy of the core charge distribution:               0.00000806119182
  Self energy of the core charge distribution:              -1127.72469425330132
  Core Hamiltonian energy:                                    329.97685339796527
  Hartree energy:                                             463.26126726930261
  Exchange-correlation energy:                               -110.55129577661828
  Dispersion energy:                                           -0.25695155077542

  Total energy:                                              -445.29481285223528

  outer SCF iter =    1 RMS gradient =   0.10E-05 energy =       -445.2948128522

  ----------------------------------- OT ---------------------------------------
  Minimizer      : DIIS                : direct inversion
                                         in the iterative subspace
                                         using   7 DIIS vectors
                                         safer DIIS on
  Preconditioner : FULL_KINETIC        : inversion of T + eS
  Precond_solver : DEFAULT
  stepsize       :    0.15000000                  energy_gap     :    0.00100000
  eps_taylor     :   0.10000E-15                  max_taylor     :             4
  ----------------------------------- OT ---------------------------------------

  Step     Update method      Time    Convergence         Total energy    Change
  ------------------------------------------------------------------------------
     1 OT DIIS     0.15E+00    0.3     0.00002057      -445.2948129178 -6.56E-08
     2 OT DIIS     0.15E+00    0.1     0.00001453      -445.2948163483 -3.43E-06
     3 OT DIIS     0.15E+00    0.1     0.00001033      -445.2948195462 -3.20E-06
     4 OT DIIS     0.15E+00    0.1     0.00000813      -445.2948217387 -2.19E-06
     5 OT DIIS     0.15E+00    0.1     0.00000569      -445.2948239406 -2.20E-06
     6 OT DIIS     0.15E+00    0.1     0.00000396      -445.2948252021 -1.26E-06
     7 OT DIIS     0.15E+00    0.1     0.00000298      -445.2948257405 -5.38E-07
     8 OT DIIS     0.15E+00    0.1     0.00000225      -445.2948260571 -3.17E-07
     9 OT DIIS     0.15E+00    0.1     0.00000168      -445.2948262515 -1.94E-07
    10 OT DIIS     0.15E+00    0.1     0.00000124      -445.2948263656 -1.14E-07
    11 OT DIIS     0.15E+00    0.1     0.00000090      -445.2948264295 -6.38E-08

  *** SCF run converged in    11 steps ***


  Electronic density on regular grids:       -215.9999999996        0.0000000004
  Core density on regular grids:              215.9999999999       -0.0000000001
  Total charge density on r-space grids:        0.0000000002
  Total charge density g-space grids:           0.0000000002

  Overlap energy of the core charge distribution:               0.00000806119182
  Self energy of the core charge distribution:              -1127.72469425330132
  Core Hamiltonian energy:                                    329.97695020869929
  Hartree energy:                                             463.26121099839139
  Exchange-correlation energy:                               -110.55134989370271
  Dispersion energy:                                           -0.25695155077542

  Total energy:                                              -445.29482642949688

  outer SCF iter =    2 RMS gradient =   0.90E-06 energy =       -445.2948264295
  outer SCF loop converged in   2 iterations or  511 steps


 ENERGY| Total FORCE_EVAL ( QS ) energy [a.u.]:             -445.294826460758429

 --------  Informations at step =     0 ------------
  Optimization Method        =                 BFGS
  Total Energy               =      -445.2948264608
  Used time                  =               80.066
 ---------------------------------------------------

 --------------------------
 OPTIMIZATION STEP:      1
 --------------------------

 Number of electrons:                                                        216
 Number of occupied orbitals:                                                108
 Number of molecular orbitals:                                               108

 Number of orbital functions:                                                603
 Number of independent orbital functions:                                    603

 Extrapolation method: ASPC


 SCF WAVEFUNCTION OPTIMIZATION

  ----------------------------------- OT ---------------------------------------
  Minimizer      : DIIS                : direct inversion
                                         in the iterative subspace
                                         using   7 DIIS vectors
                                         safer DIIS on
  Preconditioner : FULL_KINETIC        : inversion of T + eS
  Precond_solver : DEFAULT
  stepsize       :    0.15000000                  energy_gap     :    0.00100000
  eps_taylor     :   0.10000E-15                  max_taylor     :             4
  ----------------------------------- OT ---------------------------------------

  Step     Update method      Time    Convergence         Total energy    Change
  ------------------------------------------------------------------------------
     1 OT DIIS     0.15E+00    0.1     0.00020551      -445.2943058799 -4.45E+02
     2 OT DIIS     0.15E+00    0.1     0.00014827      -445.2946545218 -3.49E-04
     3 OT DIIS     0.15E+00    0.1     0.00008915      -445.2950148688 -3.60E-04
     4 OT DIIS     0.15E+00    0.1     0.00006160      -445.2951726411 -1.58E-04
     5 OT DIIS     0.15E+00    0.1     0.00003883      -445.2952687301 -9.61E-05
     6 OT DIIS     0.15E+00    0.1     0.00002361      -445.2953112820 -4.26E-05
     7 OT DIIS     0.15E+00    0.1     0.00001615      -445.2953251653 -1.39E-05
     8 OT DIIS     0.15E+00    0.1     0.00001138      -445.2953321063 -6.94E-06
     9 OT DIIS     0.15E+00    0.1     0.00000866      -445.2953355375 -3.43E-06
    10 OT DIIS     0.15E+00    0.1     0.00000645      -445.2953379593 -2.42E-06
    11 OT DIIS     0.15E+00    0.1     0.00000493      -445.2953393858 -1.43E-06
    12 OT DIIS     0.15E+00    0.1     0.00000364      -445.2953403188 -9.33E-07
    13 OT DIIS     0.15E+00    0.1     0.00000264      -445.2953408438 -5.25E-07
    14 OT DIIS     0.15E+00    0.1     0.00000199      -445.2953410869 -2.43E-07
    15 OT DIIS     0.15E+00    0.1     0.00000154      -445.2953412078 -1.21E-07
    16 OT DIIS     0.15E+00    0.1     0.00000117      -445.2953412823 -7.46E-08
    17 OT DIIS     0.15E+00    0.1     0.00000090      -445.2953413242 -4.19E-08

  *** SCF run converged in    17 steps ***


  Electronic density on regular grids:       -215.9999999994        0.0000000006
  Core density on regular grids:              215.9999999999       -0.0000000001
  Total charge density on r-space grids:        0.0000000005
  Total charge density g-space grids:           0.0000000005

  Overlap energy of the core charge distribution:               0.00000804528558
  Self energy of the core charge distribution:              -1127.72469425330132
  Core Hamiltonian energy:                                    330.00955423474534
  Hartree energy:                                             463.23631308931994
  Exchange-correlation energy:                               -110.55937436319330
  Dispersion energy:                                           -0.25714807708625

  Total energy:                                              -445.29534132423004

  outer SCF iter =    1 RMS gradient =   0.90E-06 energy =       -445.2953413242
  outer SCF loop converged in   1 iterations or   17 steps


 ENERGY| Total FORCE_EVAL ( QS ) energy [a.u.]:             -445.295341350556214

 --------  Informations at step =     1 ------------
  Optimization Method        =                 BFGS
  Total Energy               =      -445.2953413506
  Real energy change         =        -0.0005148898
  Predicted change in energy =        -0.0006037249
  Scaling factor             =         0.0000000000
  Step size                  =         0.0365635331
  Trust radius               =         0.1889726133
  Decrease in energy         =                  YES
  Used time                  =                4.107

  Convergence check :
  Max. step size             =         0.0365635331
  Conv. limit for step size  =         0.0002000000
  Convergence in step size   =                   NO
  RMS step size              =         0.0079982649
  Conv. limit for RMS step   =         0.0002000000
  Convergence in RMS step    =                   NO
  Max. gradient              =         0.0037743455
  Conv. limit for gradients  =         0.0002000000
  Conv. for gradients        =                   NO
  RMS gradient               =         0.0008903464
  Conv. limit for RMS grad.  =         0.0002000000
  Conv. for gradients        =                   NO
 ---------------------------------------------------
 Estimated peak process memory after this step [MiB]                         282

 --------------------------
 OPTIMIZATION STEP:      2
 --------------------------

 Number of electrons:                                                        216
 Number of occupied orbitals:                                                108
 Number of molecular orbitals:                                               108

 Number of orbital functions:                                                603
 Number of independent orbital functions:                                    603

 Extrapolation method: ASPC


 SCF WAVEFUNCTION OPTIMIZATION

  ----------------------------------- OT ---------------------------------------
  Minimizer      : DIIS                : direct inversion
                                         in the iterative subspace
                                         using   7 DIIS vectors
                                         safer DIIS on
  Preconditioner : FULL_KINETIC        : inversion of T + eS
  Precond_solver : DEFAULT
  stepsize       :    0.15000000                  energy_gap     :    0.00100000
  eps_taylor     :   0.10000E-15                  max_taylor     :             4
  ----------------------------------- OT ---------------------------------------

  Step     Update method      Time    Convergence         Total energy    Change
  ------------------------------------------------------------------------------
     1 OT DIIS     0.15E+00    0.1     0.00031537      -445.2927882428 -4.45E+02
     2 OT DIIS     0.15E+00    0.1     0.00023504      -445.2936231332 -8.35E-04
     3 OT DIIS     0.15E+00    0.1     0.00014132      -445.2946007534 -9.78E-04
     4 OT DIIS     0.15E+00    0.1     0.00009211      -445.2950504792 -4.50E-04
     5 OT DIIS     0.15E+00    0.1     0.00005343      -445.2952845967 -2.34E-04
     6 OT DIIS     0.15E+00    0.1     0.00003413      -445.2953567548 -7.22E-05
     7 OT DIIS     0.15E+00    0.1     0.00002268      -445.2953847457 -2.80E-05
     8 OT DIIS     0.15E+00    0.1     0.00001589      -445.2953981924 -1.34E-05
     9 OT DIIS     0.15E+00    0.1     0.00001241      -445.2954043229 -6.13E-06
    10 OT DIIS     0.15E+00    0.1     0.00000927      -445.2954093412 -5.02E-06
    11 OT DIIS     0.15E+00    0.1     0.00000723      -445.2954122737 -2.93E-06
    12 OT DIIS     0.15E+00    0.1     0.00000542      -445.2954143170 -2.04E-06
    13 OT DIIS     0.15E+00    0.1     0.00000399      -445.2954155173 -1.20E-06
    14 OT DIIS     0.15E+00    0.1     0.00000303      -445.2954160871 -5.70E-07
    15 OT DIIS     0.15E+00    0.1     0.00000230      -445.2954163833 -2.96E-07
    16 OT DIIS     0.15E+00    0.1     0.00000174      -445.2954165511 -1.68E-07
    17 OT DIIS     0.15E+00    0.1     0.00000134      -445.2954166410 -8.99E-08
    18 OT DIIS     0.15E+00    0.1     0.00000100      -445.2954166980 -5.71E-08
    19 OT DIIS     0.15E+00    0.1     0.00000078      -445.2954167275 -2.95E-08

  *** SCF run converged in    19 steps ***


  Electronic density on regular grids:       -215.9999999993        0.0000000007
  Core density on regular grids:              215.9999999999       -0.0000000001
  Total charge density on r-space grids:        0.0000000005
  Total charge density g-space grids:           0.0000000005

  Overlap energy of the core charge distribution:               0.00000798571554
  Self energy of the core charge distribution:              -1127.72469425330132
  Core Hamiltonian energy:                                    330.00339855600953
  Hartree energy:                                             463.24073874400904
  Exchange-correlation energy:                               -110.55776683556452
  Dispersion energy:                                           -0.25710092439139

  Total energy:                                              -445.29541672752322

  outer SCF iter =    1 RMS gradient =   0.78E-06 energy =       -445.2954167275
  outer SCF loop converged in   1 iterations or   19 steps


 ENERGY| Total FORCE_EVAL ( QS ) energy [a.u.]:             -445.295416745965611

 --------  Informations at step =     2 ------------
  Optimization Method        =                 BFGS
  Total Energy               =      -445.2954167460
  Real energy change         =        -0.0000753954
  Predicted change in energy =        -0.0003556042
  Scaling factor             =         0.0000000000
  Step size                  =         0.0354872806
  Trust radius               =         0.1889726133
  Decrease in energy         =                  YES
  Used time                  =                4.385

  Convergence check :
  Max. step size             =         0.0354872806
  Conv. limit for step size  =         0.0002000000
  Convergence in step size   =                   NO
  RMS step size              =         0.0065448552
  Conv. limit for RMS step   =         0.0002000000
  Convergence in RMS step    =                   NO
  Max. gradient              =         0.0031126457
  Conv. limit for gradients  =         0.0002000000
  Conv. for gradients        =                   NO
  RMS gradient               =         0.0008520561
  Conv. limit for RMS grad.  =         0.0002000000
  Conv. for gradients        =                   NO
 ---------------------------------------------------
 Estimated peak process memory after this step [MiB]                         283

 --------------------------
 OPTIMIZATION STEP:      3
 --------------------------

 Number of electrons:                                                        216
 Number of occupied orbitals:                                                108
 Number of molecular orbitals:                                               108

 Number of orbital functions:                                                603
 Number of independent orbital functions:                                    603

 Extrapolation method: ASPC


 SCF WAVEFUNCTION OPTIMIZATION

  ----------------------------------- OT ---------------------------------------
  Minimizer      : DIIS                : direct inversion
                                         in the iterative subspace
                                         using   7 DIIS vectors
                                         safer DIIS on
  Preconditioner : FULL_KINETIC        : inversion of T + eS
  Precond_solver : DEFAULT
  stepsize       :    0.15000000                  energy_gap     :    0.00100000
  eps_taylor     :   0.10000E-15                  max_taylor     :             4
  ----------------------------------- OT ---------------------------------------

  Step     Update method      Time    Convergence         Total energy    Change
  ------------------------------------------------------------------------------
     1 OT DIIS     0.15E+00    0.1     0.00040244      -445.2915124560 -4.45E+02
     2 OT DIIS     0.15E+00    0.1     0.00029901      -445.2928717703 -1.36E-03
     3 OT DIIS     0.15E+00    0.1     0.00017466      -445.2944697107 -1.60E-03
     4 OT DIIS     0.15E+00    0.1     0.00011171      -445.2951540364 -6.84E-04
     5 OT DIIS     0.15E+00    0.1     0.00006332      -445.2954936130 -3.40E-04
     6 OT DIIS     0.15E+00    0.1     0.00004046      -445.2955906004 -9.70E-05
     7 OT DIIS     0.15E+00    0.1     0.00002634      -445.2956292304 -3.86E-05
     8 OT DIIS     0.15E+00    0.1     0.00001788      -445.2956469757 -1.77E-05
     9 OT DIIS     0.15E+00    0.1     0.00001355      -445.2956545969 -7.62E-06
    10 OT DIIS     0.15E+00    0.1     0.00000998      -445.2956601313 -5.53E-06
    11 OT DIIS     0.15E+00    0.1     0.00000779      -445.2956632207 -3.09E-06
    12 OT DIIS     0.15E+00    0.1     0.00000600      -445.2956653377 -2.12E-06
    13 OT DIIS     0.15E+00    0.1     0.00000448      -445.2956667554 -1.42E-06
    14 OT DIIS     0.15E+00    0.1     0.00000340      -445.2956675003 -7.45E-07
    15 OT DIIS     0.15E+00    0.1     0.00000256      -445.2956679028 -4.02E-07
    16 OT DIIS     0.15E+00    0.1     0.00000192      -445.2956681214 -2.19E-07
    17 OT DIIS     0.15E+00    0.1     0.00000147      -445.2956682333 -1.12E-07
    18 OT DIIS     0.15E+00    0.1     0.00000110      -445.2956683024 -6.91E-08
    19 OT DIIS     0.15E+00    0.1     0.00000085      -445.2956683389 -3.65E-08

  *** SCF run converged in    19 steps ***


  Electronic density on regular grids:       -215.9999999993        0.0000000007
  Core density on regular grids:              215.9999999999       -0.0000000001
  Total charge density on r-space grids:        0.0000000006
  Total charge density g-space grids:           0.0000000006

  Overlap energy of the core charge distribution:               0.00000796900089
  Self energy of the core charge distribution:              -1127.72469425330132
  Core Hamiltonian energy:                                    329.98036947021200
  Hartree energy:                                             463.25776245264768
  Exchange-correlation energy:                               -110.55214461907485
  Dispersion energy:                                           -0.25696935839223

  Total energy:                                              -445.29566833890766

  outer SCF iter =    1 RMS gradient =   0.85E-06 energy =       -445.2956683389
  outer SCF loop converged in   1 iterations or   19 steps


 ENERGY| Total FORCE_EVAL ( QS ) energy [a.u.]:             -445.295668361563003

 --------  Informations at step =     3 ------------
  Optimization Method        =                 BFGS
  Total Energy               =      -445.2956683616
  Real energy change         =        -0.0002516156
  Predicted change in energy =        -0.0002467249
  Scaling factor             =         0.0000000000
  Step size                  =         0.0160811210
  Trust radius               =         0.1889726133
  Decrease in energy         =                  YES
  Used time                  =                4.424

  Convergence check :
  Max. step size             =         0.0160811210
  Conv. limit for step size  =         0.0002000000
  Convergence in step size   =                   NO
  RMS step size              =         0.0040516194
  Conv. limit for RMS step   =         0.0002000000
  Convergence in RMS step    =                   NO
  Max. gradient              =         0.0015509314
  Conv. limit for gradients  =         0.0002000000
  Conv. for gradients        =                   NO
  RMS gradient               =         0.0003235198
  Conv. limit for RMS grad.  =         0.0002000000
  Conv. for gradients        =                   NO
 ---------------------------------------------------
 Estimated peak process memory after this step [MiB]                         285

 --------------------------
 OPTIMIZATION STEP:      4
 --------------------------

 Number of electrons:                                                        216
 Number of occupied orbitals:                                                108
 Number of molecular orbitals:                                               108

 Number of orbital functions:                                                603
 Number of independent orbital functions:                                    603

 Extrapolation method: ASPC


 SCF WAVEFUNCTION OPTIMIZATION

  ----------------------------------- OT ---------------------------------------
  Minimizer      : DIIS                : direct inversion
                                         in the iterative subspace
                                         using   7 DIIS vectors
                                         safer DIIS on
  Preconditioner : FULL_KINETIC        : inversion of T + eS
  Precond_solver : DEFAULT
  stepsize       :    0.15000000                  energy_gap     :    0.00100000
  eps_taylor     :   0.10000E-15                  max_taylor     :             4
  ----------------------------------- OT ---------------------------------------

  Step     Update method      Time    Convergence         Total energy    Change
  ------------------------------------------------------------------------------
     1 OT DIIS     0.15E+00    0.1     0.00035281      -445.2927249595 -4.45E+02
     2 OT DIIS     0.15E+00    0.1     0.00025842      -445.2937630573 -1.04E-03
     3 OT DIIS     0.15E+00    0.1     0.00014740      -445.2949269436 -1.16E-03
     4 OT DIIS     0.15E+00    0.1     0.00009477      -445.2953880597 -4.61E-04
     5 OT DIIS     0.15E+00    0.1     0.00005512      -445.2956158917 -2.28E-04
     6 OT DIIS     0.15E+00    0.1     0.00003446      -445.2956894678 -7.36E-05
     7 OT DIIS     0.15E+00    0.1     0.00002247      -445.2957172704 -2.78E-05
     8 OT DIIS     0.15E+00    0.1     0.00001480      -445.2957301970 -1.29E-05
     9 OT DIIS     0.15E+00    0.1     0.00001071      -445.2957355520 -5.35E-06
    10 OT DIIS     0.15E+00    0.1     0.00000767      -445.2957387949 -3.24E-06
    11 OT DIIS     0.15E+00    0.1     0.00000581      -445.2957405151 -1.72E-06
    12 OT DIIS     0.15E+00    0.1     0.00000448      -445.2957415602 -1.05E-06
    13 OT DIIS     0.15E+00    0.1     0.00000335      -445.2957422825 -7.22E-07
    14 OT DIIS     0.15E+00    0.1     0.00000253      -445.2957426798 -3.97E-07
    15 OT DIIS     0.15E+00    0.1     0.00000189      -445.2957428982 -2.18E-07
    16 OT DIIS     0.15E+00    0.1     0.00000140      -445.2957430189 -1.21E-07
    17 OT DIIS     0.15E+00    0.1     0.00000107      -445.2957430775 -5.85E-08
    18 OT DIIS     0.15E+00    0.1     0.00000080      -445.2957431127 -3.52E-08

  *** SCF run converged in    18 steps ***


  Electronic density on regular grids:       -215.9999999992        0.0000000008
  Core density on regular grids:              215.9999999999       -0.0000000001
  Total charge density on r-space grids:        0.0000000006
  Total charge density g-space grids:           0.0000000006

  Overlap energy of the core charge distribution:               0.00000797212644
  Self energy of the core charge distribution:              -1127.72469425330132
  Core Hamiltonian energy:                                    329.97630380575055
  Hartree energy:                                             463.26077232428213
  Exchange-correlation energy:                               -110.55118711116448
  Dispersion energy:                                           -0.25694585036470

  Total energy:                                              -445.29574311267135

  outer SCF iter =    1 RMS gradient =   0.80E-06 energy =       -445.2957431127
  outer SCF loop converged in   1 iterations or   18 steps


 ENERGY| Total FORCE_EVAL ( QS ) energy [a.u.]:             -445.295743132961377

 --------  Informations at step =     4 ------------
  Optimization Method        =                 BFGS
  Total Energy               =      -445.2957431330
  Real energy change         =        -0.0000747714
  Predicted change in energy =        -0.0000593583
  Scaling factor             =         0.0000000000
  Step size                  =         0.0151229495
  Trust radius               =         0.1889726133
  Decrease in energy         =                  YES
  Used time                  =                4.252

  Convergence check :
  Max. step size             =         0.0151229495
  Conv. limit for step size  =         0.0002000000
  Convergence in step size   =                   NO
  RMS step size              =         0.0027436490
  Conv. limit for RMS step   =         0.0002000000
  Convergence in RMS step    =                   NO
  Max. gradient              =         0.0016732058
  Conv. limit for gradients  =         0.0002000000
  Conv. for gradients        =                   NO
  RMS gradient               =         0.0002749664
  Conv. limit for RMS grad.  =         0.0002000000
  Conv. for gradients        =                   NO
 ---------------------------------------------------
 Estimated peak process memory after this step [MiB]                         286

 --------------------------
 OPTIMIZATION STEP:      5
 --------------------------

 Number of electrons:                                                        216
 Number of occupied orbitals:                                                108
 Number of molecular orbitals:                                               108

 Number of orbital functions:                                                603
 Number of independent orbital functions:                                    603

 Extrapolation method: ASPC


 SCF WAVEFUNCTION OPTIMIZATION

  ----------------------------------- OT ---------------------------------------
  Minimizer      : DIIS                : direct inversion
                                         in the iterative subspace
                                         using   7 DIIS vectors
                                         safer DIIS on
  Preconditioner : FULL_KINETIC        : inversion of T + eS
  Precond_solver : DEFAULT
  stepsize       :    0.15000000                  energy_gap     :    0.00100000
  eps_taylor     :   0.10000E-15                  max_taylor     :             4
  ----------------------------------- OT ---------------------------------------

  Step     Update method      Time    Convergence         Total energy    Change
  ------------------------------------------------------------------------------
     1 OT DIIS     0.15E+00    0.1     0.00024355      -445.2943194979 -4.45E+02
     2 OT DIIS     0.15E+00    0.1     0.00017791      -445.2948133486 -4.94E-04
     3 OT DIIS     0.15E+00    0.1     0.00010188      -445.2953593559 -5.46E-04
     4 OT DIIS     0.15E+00    0.1     0.00006530      -445.2955790274 -2.20E-04
     5 OT DIIS     0.15E+00    0.1     0.00003810      -445.2956863826 -1.07E-04
     6 OT DIIS     0.15E+00    0.1     0.00002390      -445.2957213322 -3.49E-05
     7 OT DIIS     0.15E+00    0.1     0.00001558      -445.2957347219 -1.34E-05
     8 OT DIIS     0.15E+00    0.1     0.00001027      -445.2957409054 -6.18E-06
[...]
 qs_forces                           37  5.0    0.017    0.044  189.888  189.889
 qs_energies                         38  6.0    0.003    0.003  183.472  183.476
 scf_env_do_scf                      38  7.0    0.001    0.003  128.287  128.288
 scf_env_do_scf_inner_loop          863  8.0    0.011    0.032  125.072  125.112
 rebuild_ks_matrix                  900  9.9    0.002    0.002   66.520   66.688
 qs_ks_build_kohn_sham_matrix       900 10.9    0.089    0.102   66.518   66.686
 qs_ks_update_qs_env                902  9.0    0.006    0.006   60.226   60.387
 sum_up_and_integrate               900 11.9    0.035    0.040   52.868   52.897
 integrate_v_rspace                 900 12.9    0.054    0.075   52.831   52.862
 qs_energies_init_hamiltonians       38  7.0    0.001    0.003   52.150   52.151
 calculate_dispersion_pairpot        38  8.0   12.502   49.229   49.292   49.292
 mp_sum_d                         33530 14.9   37.835   47.231   37.835   47.231
 qs_rho_update_rho_low              901  9.0    0.003    0.003   44.472   44.489
 calculate_rho_elec                 901 10.0    0.051    0.056   44.469   44.487
 rs_pw_transfer                    7279 13.4    0.047    0.064   37.438   41.549
 grid_integrate_task_list           900 13.9   15.164   36.398   15.164   36.398
 density_rs2pw                      901 11.0    0.021    0.029   28.590   32.699
 grid_collocate_task_list           901 11.0   15.579   28.896   15.579   28.896
 mp_alltoall_d11v                 14081 15.6   21.477   25.984   21.477   25.984
 rs_gather_matrices                 900 13.9    0.018    0.025   21.278   25.922
 qs_scf_new_mos                     863  9.0    0.003    0.003   24.383   24.644
 qs_scf_loop_do_ot                  863 10.0    0.003    0.003   24.380   24.641
 ot_scf_mini                        863 11.0    0.007    0.008   23.260   23.531
 dbcsr_multiply_generic           17470 14.0    0.326    0.385   21.885   22.451
 mp_waitany                       75048 15.3   15.601   19.804   15.601   19.804
 rs_pw_transfer_RS2PW_230           939 13.0    1.278    1.788   15.403   19.555
 pw_transfer                      17143 14.1    5.542    6.191   16.651   16.820
 potential_pw2rs                    900 13.9    0.018    0.019   16.328   16.408
 multiply_cannon                  17470 15.0    5.975    6.925   13.154   14.916
 ot_mini                            863 12.0    0.003    0.003   14.180   14.427
 qs_ot_get_derivative               863 13.0    0.012    0.013   12.630   12.900
 fft_wrap_pw1pw2                  15343 15.2    0.033    0.040   11.067   12.531
 qs_vxc_create                      900 11.9    0.010    0.018    9.760    9.794
 xc_vxc_pw_create                   900 12.9    0.202    0.224    9.751    9.785
 fft_wrap_pw1pw2_230               9940 16.6    0.493    0.620    8.554    9.293
 fft3d_pb                          9940 17.6    1.714    2.136    6.963    7.737
 mp_waitall_1                   3055318 17.9    6.177    7.526    6.177    7.526
 rs_pw_transfer_RS2PW_80            901 13.0    3.276    6.121    6.663    7.122
 multiply_cannon_loop             17470 16.0    0.907    0.947    5.819    7.055
 rs_pw_transfer_PW2RS_230           937 15.7    2.996    3.435    6.679    6.952
 qs_ot_get_derivative_diag          499 14.0    0.005    0.005    6.376    6.536
 xc_pw_derive                      5400 14.9    0.010    0.012    6.153    6.399
 qs_ks_update_qs_env_forces          37  6.0    0.000    0.000    6.332    6.339
 qs_ot_get_p                        902 11.9    0.002    0.003    6.055    6.302
 mp_alltoall_z22v                 25283 19.4    4.490    5.844    4.490    5.844
 xc_rho_set_and_dset_create         900 13.9    0.101    0.133    5.422    5.607
 rs_pw_transfer_PW2RS_80            900 15.9    1.295    1.430    4.670    5.573
 mp_sum_l                         83778 15.0    2.220    5.536    2.220    5.536
 make_m2s                         34940 15.0    0.299    0.313    5.099    5.351
 mp_sendrecv_dv                  516273 14.0    4.691    5.243    4.691    5.243
 xc_pw_divergence                   900 13.9    0.005    0.005    4.048    4.234
 make_images                      34940 16.0    0.563    0.640    3.959    4.118
 -------------------------------------------------------------------------------

 The number of warnings for this run is : 2
 
 -------------------------------------------------------------------------------
  **** **** ******  **  PROGRAM ENDED AT                 2025-07-18 12:42:52.450
 ***** ** ***  *** **   PROGRAM RAN ON                                  nid02414
 **    ****   ******    PROGRAM RAN BY                                 x_satyanb
 ***** **    ** ** **   PROGRAM PROCESS ID                               2653658
  **** **  *******  **  PROGRAM STOPPED IN /scratch/x_satyanb/CCDC_NEW_2071_MOFs
                                           _ODAC_OPT/DFT_CALCULATIONS_with_CP2K_
                                           90MOFs/WATER_CALCULATIONS/MORE_CUTOFF
                                           /OPTIMIZATION_MOF_WATER/widom_qmof-a9
                                           be673_mepoml-geo_opt_odac_H2O-PBE_e_m
                                           in-opt_0005
[CRAYBLAS_WARNING] Application linked against multiple cray-libsci libraries
[CRAYBLAS_WARNING] Application linked against multiple cray-libsci libraries
[CRAYBLAS_WARNING] Application linked against multiple cray-libsci libraries
[CRAYBLAS_WARNING] Application linked against multiple cray-libsci libraries
[CRAYBLAS_WARNING] Application linked against multiple cray-libsci libraries
[CRAYBLAS_WARNING] Application linked against multiple cray-libsci libraries
[CRAYBLAS_WARNING] Application linked against multiple cray-libsci libraries
[CRAYBLAS_WARNING] Application linked against multiple cray-libsci libraries
[CRAYBLAS_WARNING] Application linked against multiple cray-libsci libraries
[CRAYBLAS_WARNING] Application linked against multiple cray-libsci libraries
[CRAYBLAS_WARNING] Application linked against multiple cray-libsci libraries
[CRAYBLAS_WARNING] Application linked against multiple cray-libsci libraries
[CRAYBLAS_WARNING] Application linked against multiple cray-libsci libraries
[CRAYBLAS_WARNING] Application linked against multiple cray-libsci libraries
[CRAYBLAS_WARNING] Application linked against multiple cray-libsci libraries
[CRAYBLAS_WARNING] Application linked against multiple cray-libsci libraries
[CRAYBLAS_WARNING] Application linked against multiple cray-libsci libraries
[CRAYBLAS_WARNING] Application linked against multiple cray-libsci libraries
[CRAYBLAS_WARNING] Application linked against multiple cray-libsci libraries
[CRAYBLAS_WARNING] Application linked against multiple cray-libsci libraries
[CRAYBLAS_WARNING] Application linked against multiple cray-libsci libraries
[CRAYBLAS_WARNING] Application linked against multiple cray-libsci libraries
[CRAYBLAS_WARNING] Application linked against multiple cray-libsci libraries
[CRAYBLAS_WARNING] Application linked against multiple cray-libsci libraries
[CRAYBLAS_WARNING] Application linked against multiple cray-libsci libraries
[CRAYBLAS_WARNING] Application linked against multiple cray-libsci libraries
[CRAYBLAS_WARNING] Application linked against multiple cray-libsci libraries
[CRAYBLAS_WARNING] Application linked against multiple cray-libsci libraries
[CRAYBLAS_WARNING] Application linked against multiple cray-libsci libraries
[CRAYBLAS_WARNING] Application linked against multiple cray-libsci libraries
[CRAYBLAS_WARNING] Application linked against multiple cray-libsci libraries
[CRAYBLAS_WARNING] Application linked against multiple cray-libsci libraries
[CRAYBLAS_WARNING] Application linked against multiple cray-libsci libraries
[CRAYBLAS_WARNING] Application linked against multiple cray-libsci libraries
[CRAYBLAS_WARNING] Application linked against multiple cray-libsci libraries
[CRAYBLAS_WARNING] Application linked against multiple cray-libsci libraries
[CRAYBLAS_WARNING] Application linked against multiple cray-libsci libraries
[CRAYBLAS_WARNING] Application linked against multiple cray-libsci libraries
[CRAYBLAS_WARNING] Application linked against multiple cray-libsci libraries
[CRAYBLAS_WARNING] Application linked against multiple cray-libsci libraries
[CRAYBLAS_WARNING] Application linked against multiple cray-libsci libraries
[CRAYBLAS_WARNING] Application linked against multiple cray-libsci libraries
[CRAYBLAS_WARNING] Application linked against multiple cray-libsci libraries
[CRAYBLAS_WARNING] Application linked against multiple cray-libsci libraries
[CRAYBLAS_WARNING] Application linked against multiple cray-libsci libraries
[CRAYBLAS_WARNING] Application linked against multiple cray-libsci libraries
[CRAYBLAS_WARNING] Application linked against multiple cray-libsci libraries
[CRAYBLAS_WARNING] Application linked against multiple cray-libsci libraries
[CRAYBLAS_WARNING] Application linked against multiple cray-libsci libraries
[CRAYBLAS_WARNING] Application linked against multiple cray-libsci libraries
[CRAYBLAS_WARNING] Application linked against multiple cray-libsci libraries
[CRAYBLAS_WARNING] Application linked against multiple cray-libsci libraries
[CRAYBLAS_WARNING] Application linked against multiple cray-libsci libraries
[CRAYBLAS_WARNING] Application linked against multiple cray-libsci libraries
[CRAYBLAS_WARNING] Application linked against multiple cray-libsci libraries
[CRAYBLAS_WARNING] Application linked against multiple cray-libsci libraries
[CRAYBLAS_WARNING] Application linked against multiple cray-libsci libraries
[CRAYBLAS_WARNING] Application linked against multiple cray-libsci libraries
[CRAYBLAS_WARNING] Application linked against multiple cray-libsci libraries
[CRAYBLAS_WARNING] Application linked against multiple cray-libsci libraries
[CRAYBLAS_WARNING] Application linked against multiple cray-libsci libraries
[CRAYBLAS_WARNING] Application linked against multiple cray-libsci libraries
[CRAYBLAS_WARNING] Application linked against multiple cray-libsci libraries
[CRAYBLAS_WARNING] Application linked against multiple cray-libsci libraries
[CRAYBLAS_WARNING] Application linked against multiple cray-libsci libraries
[CRAYBLAS_WARNING] Application linked against multiple cray-libsci libraries
[CRAYBLAS_WARNING] Application linked against multiple cray-libsci libraries
[CRAYBLAS_WARNING] Application linked against multiple cray-libsci libraries
[CRAYBLAS_WARNING] Application linked against multiple cray-libsci libraries
[CRAYBLAS_WARNING] Application linked against multiple cray-libsci libraries
[CRAYBLAS_WARNING] Application linked against multiple cray-libsci libraries
[CRAYBLAS_WARNING] Application linked against multiple cray-libsci libraries
[CRAYBLAS_WARNING] Application linked against multiple cray-libsci libraries
[CRAYBLAS_WARNING] Application linked against multiple cray-libsci libraries
[CRAYBLAS_WARNING] Application linked against multiple cray-libsci libraries
[CRAYBLAS_WARNING] Application linked against multiple cray-libsci libraries
[CRAYBLAS_WARNING] Application linked against multiple cray-libsci libraries
[CRAYBLAS_WARNING] Application linked against multiple cray-libsci libraries
[CRAYBLAS_WARNING] Application linked against multiple cray-libsci libraries
[CRAYBLAS_WARNING] Application linked against multiple cray-libsci libraries
[CRAYBLAS_WARNING] Application linked against multiple cray-libsci libraries
[CRAYBLAS_WARNING] Application linked against multiple cray-libsci libraries
[CRAYBLAS_WARNING] Application linked against multiple cray-libsci libraries
[CRAYBLAS_WARNING] Application linked against multiple cray-libsci libraries
[CRAYBLAS_WARNING] Application linked against multiple cray-libsci libraries
[CRAYBLAS_WARNING] Application linked against multiple cray-libsci libraries
[CRAYBLAS_WARNING] Application linked against multiple cray-libsci libraries
[CRAYBLAS_WARNING] Application linked against multiple cray-libsci libraries
[CRAYBLAS_WARNING] Application linked against multiple cray-libsci libraries
[CRAYBLAS_WARNING] Application linked against multiple cray-libsci libraries
[CRAYBLAS_WARNING] Application linked against multiple cray-libsci libraries
[CRAYBLAS_WARNING] Application linked against multiple cray-libsci libraries
[CRAYBLAS_WARNING] Application linked against multiple cray-libsci libraries
[CRAYBLAS_WARNING] Application linked against multiple cray-libsci libraries
[CRAYBLAS_WARNING] Application linked against multiple cray-libsci libraries
[CRAYBLAS_WARNING] Application linked against multiple cray-libsci libraries
[CRAYBLAS_WARNING] Application linked against multiple cray-libsci libraries
[CRAYBLAS_WARNING] Application linked against multiple cray-libsci libraries
[CRAYBLAS_WARNING] Application linked against multiple cray-libsci libraries
[CRAYBLAS_WARNING] Application linked against multiple cray-libsci libraries
[CRAYBLAS_WARNING] Application linked against multiple cray-libsci libraries
[CRAYBLAS_WARNING] Application linked against multiple cray-libsci libraries
[CRAYBLAS_WARNING] Application linked against multiple cray-libsci libraries
[CRAYBLAS_WARNING] Application linked against multiple cray-libsci libraries
[CRAYBLAS_WARNING] Application linked against multiple cray-libsci libraries
[CRAYBLAS_WARNING] Application linked against multiple cray-libsci libraries
[CRAYBLAS_WARNING] Application linked against multiple cray-libsci libraries
[CRAYBLAS_WARNING] Application linked against multiple cray-libsci libraries
[CRAYBLAS_WARNING] Application linked against multiple cray-libsci libraries
[CRAYBLAS_WARNING] Application linked against multiple cray-libsci libraries
[CRAYBLAS_WARNING] Application linked against multiple cray-libsci libraries
[CRAYBLAS_WARNING] Application linked against multiple cray-libsci libraries
[CRAYBLAS_WARNING] Application linked against multiple cray-libsci libraries
[CRAYBLAS_WARNING] Application linked against multiple cray-libsci libraries
[CRAYBLAS_WARNING] Application linked against multiple cray-libsci libraries
[CRAYBLAS_WARNING] Application linked against multiple cray-libsci libraries
[CRAYBLAS_WARNING] Application linked against multiple cray-libsci libraries
[CRAYBLAS_WARNING] Application linked against multiple cray-libsci libraries
[CRAYBLAS_WARNING] Application linked against multiple cray-libsci libraries
[CRAYBLAS_WARNING] Application linked against multiple cray-libsci libraries
[CRAYBLAS_WARNING] Application linked against multiple cray-libsci libraries
[CRAYBLAS_WARNING] Application linked against multiple cray-libsci libraries
[CRAYBLAS_WARNING] Application linked against multiple cray-libsci libraries
[CRAYBLAS_WARNING] Application linked against multiple cray-libsci libraries
[CRAYBLAS_WARNING] Application linked against multiple cray-libsci libraries
[CRAYBLAS_WARNING] Application linked against multiple cray-libsci libraries
[CRAYBLAS_WARNING] Application linked against multiple cray-libsci libraries
[CRAYBLAS_WARNING] Application linked against multiple cray-libsci libraries
[CRAYBLAS_WARNING] Application linked against multiple cray-libsci libraries
[CRAYBLAS_WARNING] Application linked against multiple cray-libsci libraries
[CRAYBLAS_WARNING] Application linked against multiple cray-libsci libraries
[CRAYBLAS_WARNING] Application linked against multiple cray-libsci libraries
[CRAYBLAS_WARNING] Application linked against multiple cray-libsci libraries
[CRAYBLAS_WARNING] Application linked against multiple cray-libsci libraries
[CRAYBLAS_WARNING] Application linked against multiple cray-libsci libraries
[CRAYBLAS_WARNING] Application linked against multiple cray-libsci libraries
[CRAYBLAS_WARNING] Application linked against multiple cray-libsci libraries
[CRAYBLAS_WARNING] Application linked against multiple cray-libsci libraries
[CRAYBLAS_WARNING] Application linked against multiple cray-libsci libraries
[CRAYBLAS_WARNING] Application linked against multiple cray-libsci libraries
[CRAYBLAS_WARNING] Application linked against multiple cray-libsci libraries
[CRAYBLAS_WARNING] Application linked against multiple cray-libsci libraries
[CRAYBLAS_WARNING] Application linked against multiple cray-libsci libraries
[CRAYBLAS_WARNING] Application linked against multiple cray-libsci libraries
[CRAYBLAS_WARNING] Application linked against multiple cray-libsci libraries
[CRAYBLAS_WARNING] Application linked against multiple cray-libsci libraries
[CRAYBLAS_WARNING] Application linked against multiple cray-libsci libraries
[CRAYBLAS_WARNING] Application linked against multiple cray-libsci libraries
[CRAYBLAS_WARNING] Application linked against multiple cray-libsci libraries
[CRAYBLAS_WARNING] Application linked against multiple cray-libsci libraries
[CRAYBLAS_WARNING] Application linked against multiple cray-libsci libraries
[CRAYBLAS_WARNING] Application linked against multiple cray-libsci libraries
[CRAYBLAS_WARNING] Application linked against multiple cray-libsci libraries
[CRAYBLAS_WARNING] Application linked against multiple cray-libsci libraries
[CRAYBLAS_WARNING] Application linked against multiple cray-libsci libraries
[CRAYBLAS_WARNING] Application linked against multiple cray-libsci libraries
[CRAYBLAS_WARNING] Application linked against multiple cray-libsci libraries
[CRAYBLAS_WARNING] Application linked against multiple cray-libsci libraries
[CRAYBLAS_WARNING] Application linked against multiple cray-libsci libraries
[CRAYBLAS_WARNING] Application linked against multiple cray-libsci libraries
[CRAYBLAS_WARNING] Application linked against multiple cray-libsci libraries
[CRAYBLAS_WARNING] Application linked against multiple cray-libsci libraries
[CRAYBLAS_WARNING] Application linked against multiple cray-libsci libraries
[CRAYBLAS_WARNING] Application linked against multiple cray-libsci libraries
[CRAYBLAS_WARNING] Application linked against multiple cray-libsci libraries
[CRAYBLAS_WARNING] Application linked against multiple cray-libsci libraries
[CRAYBLAS_WARNING] Application linked against multiple cray-libsci libraries
[CRAYBLAS_WARNING] Application linked against multiple cray-libsci libraries
[CRAYBLAS_WARNING] Application linked against multiple cray-libsci libraries
[CRAYBLAS_WARNING] Application linked against multiple cray-libsci libraries
[CRAYBLAS_WARNING] Application linked against multiple cray-libsci libraries
[CRAYBLAS_WARNING] Application linked against multiple cray-libsci libraries
[CRAYBLAS_WARNING] Application linked against multiple cray-libsci libraries
[CRAYBLAS_WARNING] Application linked against multiple cray-libsci libraries
[CRAYBLAS_WARNING] Application linked against multiple cray-libsci libraries
[CRAYBLAS_WARNING] Application linked against multiple cray-libsci libraries
[CRAYBLAS_WARNING] Application linked against multiple cray-libsci libraries
[CRAYBLAS_WARNING] Application linked against multiple cray-libsci libraries
[CRAYBLAS_WARNING] Application linked against multiple cray-libsci libraries
[CRAYBLAS_WARNING] Application linked against multiple cray-libsci libraries
[CRAYBLAS_WARNING] Application linked against multiple cray-libsci libraries
[CRAYBLAS_WARNING] Application linked against multiple cray-libsci libraries
[CRAYBLAS_WARNING] Application linked against multiple cray-libsci libraries
[CRAYBLAS_WARNING] Application linked against multiple cray-libsci libraries
[CRAYBLAS_WARNING] Application linked against multiple cray-libsci libraries
[CRAYBLAS_WARNING] Application linked against multiple cray-libsci libraries
[CRAYBLAS_WARNING] Application linked against multiple cray-libsci libraries
[CRAYBLAS_WARNING] Application linked against multiple cray-libsci libraries
[CRAYBLAS_WARNING] Application linked against multiple cray-libsci libraries
[CRAYBLAS_WARNING] Application linked against multiple cray-libsci libraries
[CRAYBLAS_WARNING] Application linked against multiple cray-libsci libraries
[CRAYBLAS_WARNING] Application linked against multiple cray-libsci libraries
