 DBCSR| CPU Multiplication driver                                           XSMM (U)
 DBCSR| Multrec recursion limit                                              512 (U)
 DBCSR| Multiplication stack size                                           1000 (D)
 DBCSR| Maximum elements for images                                    UNLIMITED (U)
 DBCSR| Multiplicative factor virtual images                                   1 (U)
 DBCSR| Use multiplication densification                                       T (D)
 DBCSR| Multiplication size stacks                                             3 (U)
 DBCSR| Use memory pool for CPU allocation                                     F (U)
 DBCSR| Number of 3D layers                                               SINGLE (U)
 DBCSR| Use MPI memory allocation                                              F (U)
 DBCSR| Use RMA algorithm                                                      F (U)
 DBCSR| Use Communication thread                                               T (U)
 DBCSR| Communication thread load                                             87 (D)
 DBCSR| MPI: My process id                                                     0
 DBCSR| MPI: Number of processes                                             192
 DBCSR| OMP: Current number of threads                                         1
 DBCSR| OMP: Max number of threads                                             1
 DBCSR| Split modifier for TAS multiplication algorithm                  1.0E+00 (U)


  **** **** ******  **  PROGRAM STARTED AT               2025-06-16 18:22:04.988
 ***** ** ***  *** **   PROGRAM STARTED ON                              nid00445
 **    ****   ******    PROGRAM STARTED BY                             x_satyanb
 ***** **    ** ** **   PROGRAM PROCESS ID                               1473405
  **** **  *******  **  PROGRAM STARTED IN /scratch/x_satyanb/CCDC_NEW_2071_MOFs
                                           _ODAC_OPT/DFT_CALCULATIONS_with_CP2K_
                                           90MOFs/PBE_SOL_METHOD/OPTIMIZATION_MO
                                           F_ET/qmof-a9be673

 CP2K| version string:                                       CP2K version 2023.2
 CP2K| source code revision number:                                  git:65cca6c
 CP2K| cp2kflags: omp libint fftw3 libxc pexsi elpa parallel scalapack cosma qui
 CP2K|            p xsmm plumed2 spglib sirius libvori libbqb libvdwxc
 CP2K| is freely available from                            https://www.cp2k.org/
 CP2K| Program compiled at                       Mon 02 Sep 2024 11:42:40 PM +03
 CP2K| Program compiled on                                                   ln2
 CP2K| Program compiled for                                                local
 CP2K| Data directory path    /sw/ex111genoa/cp2k/2023.2/gcc13.2/cp2k-2023.2/dat
 CP2K| Input file name                                               GEO_OPT.inp

 GLOBAL| Force Environment number                                              1
 GLOBAL| Basis set file name                                        BASIS_MOLOPT
 GLOBAL| Potential file name                                      GTH_POTENTIALS
 GLOBAL| MM Potential file name                                     MM_POTENTIAL
 GLOBAL| Coordinate file name           qmof-a9be673_mepoml-geo_opt_odac_with_et
 GLOBAL| Method name                                                        CP2K
 GLOBAL| Project name                                               qmof-a9be673
 GLOBAL| Run type                                                        GEO_OPT
 GLOBAL| FFT library                                                       FFTW3
 GLOBAL| Diagonalization library                                            ELPA
 GLOBAL| DGEMM library                                                      BLAS
 GLOBAL| Minimum number of eigenvectors for ELPA usage                        16
 GLOBAL| Orthonormality check for eigenvectors                          DISABLED
 GLOBAL| Matrix multiplication library                                     COSMA
 GLOBAL| All-to-all communication in single precision                          F
 GLOBAL| FFTs using library dependent lengths                                  F
 GLOBAL| Grid backend                                                       AUTO
 GLOBAL| Global print level                                                  LOW
 GLOBAL| MPI I/O enabled                                                       T
 GLOBAL| Total number of message passing processes                           192
 GLOBAL| Number of threads for this process                                    1
 GLOBAL| This output is from process                                           0
 GLOBAL| Stack size for threads created by OpenMP (OMP_STACKSIZE)        default
 GLOBAL| CPU model name                          AMD EPYC 9654 96-Core Processor
 GLOBAL| CPUID                                                              1003

 MEMORY| system memory details [Kb]
 MEMORY|                        rank 0           min           max       average
 MEMORY| MemTotal            394628592     394628592     394628592     394628592
 MEMORY| MemFree             351981708     351981708     351981708     351981708
 MEMORY| Buffers                     0             0             0             0
 MEMORY| Cached                 688784        688784        688784        688784
 MEMORY| Slab                 16732200      16732200      16732200      16732200
 MEMORY| SReclaimable           203000        203000        203000        203000
 MEMORY| MemLikelyFree       352873492     352873492     352873492     352873492


 GENERATE|  Preliminary Number of Bonds generated:                             0
 GENERATE|  Achieved consistency in connectivity generation.

 *******************************************************************************
 *******************************************************************************
 **                                                                           **
 **     #####                         ##              ##                      **
 **    ##   ##            ##          ##              ##                      **
 **   ##     ##                       ##            ######                    **
 **   ##     ##  ##   ##  ##   #####  ##  ##   ####   ##    #####    #####    **
 **   ##     ##  ##   ##  ##  ##      ## ##   ##      ##   ##   ##  ##   ##   **
 **   ##  ## ##  ##   ##  ##  ##      ####     ###    ##   ######   ######    **
 **    ##  ###   ##   ##  ##  ##      ## ##      ##   ##   ##       ##        **
 **     #######   #####   ##   #####  ##  ##  ####    ##    #####   ##        **
 **           ##                                                    ##        **
 **                                                                           **
 **                                                ... make the atoms dance   **
 **                                                                           **
 **            Copyright (C) by CP2K developers group (2000-2023)             **
 **                      J. Chem. Phys. 152, 194103 (2020)                    **
 **                                                                           **
 *******************************************************************************


 TOTAL NUMBERS AND MAXIMUM NUMBERS

  Total number of            - Atomic kinds:                                  58
                             - Atoms:                                         58
                             - Shell sets:                                    58
                             - Shells:                                       258
                             - Primitive Cartesian functions:                286
                             - Cartesian basis functions:                    668
                             - Spherical basis functions:                    626

  Maximum angular momentum of- Orbital basis functions:                        2
                             - Local part of the GTH pseudopotential:          2
                             - Non-local part of the GTH pseudopotential:      2


 SCF PARAMETERS         Density guess:                                   RESTART
                        --------------------------------------------------------
                        max_scf:                                             500
                        max_scf_history:                                       0
                        max_diis:                                              4
                        --------------------------------------------------------
                        eps_scf:                                        1.00E-06
                        eps_scf_history:                                0.00E+00
                        eps_diis:                                       1.00E-01
                        eps_eigval:                                     1.00E-05
                        --------------------------------------------------------
                        level_shift [a.u.]:                             0.000000
                        --------------------------------------------------------
                        Outer loop SCF in use 
                        No variables optimised in outer loop
                        eps_scf                                         1.00E-06
                        max_scf                                              500
                        No outer loop optimization
                        step_size                                       5.00E-01

 BFGS| Use rational function optimization for step estimation:                NO
 BFGS| Use model Hessian for initial guess:                                  YES
 BFGS| Restart Hessian:                                                       NO
 BFGS| Trust radius:                                                       0.189

 *******************************************************************************
 ***                     STARTING GEOMETRY OPTIMIZATION                      ***
 ***                                   BFGS                                  ***
 *******************************************************************************

 Number of electrons:                                                        220
 Number of occupied orbitals:                                                110
 Number of molecular orbitals:                                               110

 Number of orbital functions:                                                626
 Number of independent orbital functions:                                    626

 Extrapolation method: initial_guess

 *** WARNING in qs_initial_guess.F:305 :: User requested to restart the    ***
 *** wavefunction from the file named: qmof-a9be673-RESTART.wfn. This file ***
 *** does not exist. Please check the existence of the file or change      ***
 *** properly the value of the keyword WFN_RESTART_FILE_NAME. Calculation  ***
 *** continues using ATOMIC GUESS.                                         ***



 SCF WAVEFUNCTION OPTIMIZATION

  ----------------------------------- OT ---------------------------------------
  Minimizer      : DIIS                : direct inversion
                                         in the iterative subspace
                                         using   7 DIIS vectors
                                         safer DIIS on
  Preconditioner : FULL_KINETIC        : inversion of T + eS
  Precond_solver : DEFAULT
  stepsize       :    0.15000000                  energy_gap     :    0.00100000
  eps_taylor     :   0.10000E-15                  max_taylor     :             4
  ----------------------------------- OT ---------------------------------------

  Step     Update method      Time    Convergence         Total energy    Change
  ------------------------------------------------------------------------------
     1 OT DIIS     0.15E+00    0.2     0.02834469      -422.1248940982 -4.22E+02
     2 OT DIIS     0.15E+00    0.2     0.01806284      -428.0450139642 -5.92E+00
     3 OT DIIS     0.15E+00    0.2     0.01399409      -431.0114644389 -2.97E+00
     4 OT DIIS     0.15E+00    0.2     0.01015897      -433.8533012101 -2.84E+00
     5 OT DIIS     0.15E+00    0.2     0.00786599      -435.6700540578 -1.82E+00
     6 OT DIIS     0.15E+00    0.2     0.00595276      -437.1590294019 -1.49E+00
     7 OT DIIS     0.15E+00    0.2     0.00444028      -438.2158673028 -1.06E+00
     8 OT DIIS     0.15E+00    0.2     0.00343310      -438.8264793711 -6.11E-01
     9 OT DIIS     0.15E+00    0.2     0.00271763      -439.2156653449 -3.89E-01
    10 OT DIIS     0.15E+00    0.2     0.00220263      -439.4895673683 -2.74E-01
    11 OT DIIS     0.15E+00    0.2     0.00187987      -439.6624416221 -1.73E-01
    12 OT DIIS     0.15E+00    0.2     0.00163446      -439.8088544749 -1.46E-01
    13 OT DIIS     0.15E+00    0.2     0.00148050      -439.9119160790 -1.03E-01
    14 OT DIIS     0.15E+00    0.2     0.00129502      -440.0118514075 -9.99E-02
    15 OT DIIS     0.15E+00    0.2     0.00115230      -440.0910850287 -7.92E-02
    16 OT DIIS     0.15E+00    0.2     0.00096602      -440.1651748065 -7.41E-02
    17 OT DIIS     0.15E+00    0.2     0.00082825      -440.2119382870 -4.68E-02
    18 OT DIIS     0.15E+00    0.2     0.00066297      -440.2577919834 -4.59E-02
    19 OT DIIS     0.15E+00    0.2     0.00056370      -440.2789535400 -2.12E-02
    20 OT DIIS     0.15E+00    0.2     0.00046416      -440.2977121714 -1.88E-02
    21 OT DIIS     0.15E+00    0.2     0.00037834      -440.3103555913 -1.26E-02
    22 OT DIIS     0.15E+00    0.2     0.00032412      -440.3175761550 -7.22E-03
    23 OT DIIS     0.15E+00    0.2     0.00027735      -440.3223650306 -4.79E-03
    24 OT DIIS     0.15E+00    0.2     0.00023620      -440.3262098807 -3.84E-03
    25 OT DIIS     0.15E+00    0.2     0.00020256      -440.3291983232 -2.99E-03
    26 OT DIIS     0.15E+00    0.2     0.00017354      -440.3317030745 -2.50E-03
    27 OT DIIS     0.15E+00    0.2     0.00014954      -440.3336243892 -1.92E-03
    28 OT DIIS     0.15E+00    0.2     0.00013423      -440.3349290186 -1.30E-03
    29 OT DIIS     0.15E+00    0.2     0.00012150      -440.3359935340 -1.06E-03
    30 OT DIIS     0.15E+00    0.2     0.00010969      -440.3370350298 -1.04E-03
    31 OT DIIS     0.15E+00    0.2     0.00009961      -440.3379617287 -9.27E-04
    32 OT DIIS     0.15E+00    0.2     0.00009206      -440.3386786796 -7.17E-04
    33 OT DIIS     0.15E+00    0.2     0.00008404      -440.3394351943 -7.57E-04
    34 OT DIIS     0.15E+00    0.2     0.00007750      -440.3400698496 -6.35E-04
    35 OT DIIS     0.15E+00    0.2     0.00007176      -440.3406234121 -5.54E-04
    36 OT DIIS     0.15E+00    0.2     0.00006671      -440.3411277311 -5.04E-04
    37 OT DIIS     0.15E+00    0.2     0.00006309      -440.3415022035 -3.74E-04
    38 OT DIIS     0.15E+00    0.2     0.00005945      -440.3418926532 -3.90E-04
    39 OT DIIS     0.15E+00    0.2     0.00005631      -440.3422467130 -3.54E-04
    40 OT DIIS     0.15E+00    0.2     0.00005338      -440.3425879116 -3.41E-04
    41 OT DIIS     0.15E+00    0.2     0.00005070      -440.3429069511 -3.19E-04
    42 OT DIIS     0.15E+00    0.2     0.00004834      -440.3431886453 -2.82E-04
    43 OT DIIS     0.15E+00    0.2     0.00004581      -440.3434944331 -3.06E-04
    44 OT DIIS     0.15E+00    0.2     0.00004341      -440.3437831214 -2.89E-04
    45 OT DIIS     0.15E+00    0.2     0.00004115      -440.3440497465 -2.67E-04
    46 OT DIIS     0.15E+00    0.2     0.00003916      -440.3442879596 -2.38E-04
    47 OT DIIS     0.15E+00    0.2     0.00003727      -440.3445058801 -2.18E-04
    48 OT DIIS     0.15E+00    0.2     0.00003553      -440.3447088508 -2.03E-04
    49 OT DIIS     0.15E+00    0.2     0.00003395      -440.3448890444 -1.80E-04
    50 OT DIIS     0.15E+00    0.2     0.00003242      -440.3450596409 -1.71E-04
    51 OT DIIS     0.15E+00    0.2     0.00003109      -440.3452105764 -1.51E-04
    52 OT DIIS     0.15E+00    0.2     0.00002971      -440.3453625565 -1.52E-04
    53 OT DIIS     0.15E+00    0.2     0.00002835      -440.3455078908 -1.45E-04
    54 OT DIIS     0.15E+00    0.2     0.00002713      -440.3456358636 -1.28E-04
    55 OT DIIS     0.15E+00    0.2     0.00002591      -440.3457624314 -1.27E-04
    56 OT DIIS     0.15E+00    0.2     0.00002481      -440.3458703592 -1.08E-04
    57 OT DIIS     0.15E+00    0.2     0.00002371      -440.3459759851 -1.06E-04
    58 OT DIIS     0.15E+00    0.2     0.00002263      -440.3460728795 -9.69E-05
    59 OT DIIS     0.15E+00    0.2     0.00002172      -440.3461531671 -8.03E-05
    60 OT DIIS     0.15E+00    0.2     0.00002073      -440.3462350891 -8.19E-05
    61 OT DIIS     0.15E+00    0.2     0.00001976      -440.3463088641 -7.38E-05
    62 OT DIIS     0.15E+00    0.2     0.00001884      -440.3463758429 -6.70E-05
    63 OT DIIS     0.15E+00    0.2     0.00001794      -440.3464372387 -6.14E-05
    64 OT DIIS     0.15E+00    0.2     0.00001713      -440.3464895967 -5.24E-05
    65 OT DIIS     0.15E+00    0.2     0.00001633      -440.3465376736 -4.81E-05
    66 OT DIIS     0.15E+00    0.2     0.00001555      -440.3465807842 -4.31E-05
    67 OT DIIS     0.15E+00    0.2     0.00001486      -440.3466166499 -3.59E-05
    68 OT DIIS     0.15E+00    0.2     0.00001419      -440.3466500492 -3.34E-05
    69 OT DIIS     0.15E+00    0.2     0.00001356      -440.3466794261 -2.94E-05
    70 OT DIIS     0.15E+00    0.2     0.00001298      -440.3467046413 -2.52E-05
    71 OT DIIS     0.15E+00    0.2     0.00001246      -440.3467272281 -2.26E-05
    72 OT DIIS     0.15E+00    0.2     0.00001198      -440.3467464101 -1.92E-05
    73 OT DIIS     0.15E+00    0.2     0.00001155      -440.3467637816 -1.74E-05
    74 OT DIIS     0.15E+00    0.2     0.00001114      -440.3467797322 -1.60E-05
    75 OT DIIS     0.15E+00    0.2     0.00001076      -440.3467939725 -1.42E-05
    76 OT DIIS     0.15E+00    0.2     0.00001042      -440.3468073645 -1.34E-05
    77 OT DIIS     0.15E+00    0.2     0.00001009      -440.3468201084 -1.27E-05
    78 OT DIIS     0.15E+00    0.2     0.00000979      -440.3468320591 -1.20E-05
    79 OT DIIS     0.15E+00    0.2     0.00000952      -440.3468431519 -1.11E-05
    80 OT DIIS     0.15E+00    0.2     0.00000926      -440.3468539360 -1.08E-05
    81 OT DIIS     0.15E+00    0.2     0.00000902      -440.3468641776 -1.02E-05
    82 OT DIIS     0.15E+00    0.2     0.00000878      -440.3468744995 -1.03E-05
    83 OT DIIS     0.15E+00    0.2     0.00000855      -440.3468846892 -1.02E-05
    84 OT DIIS     0.15E+00    0.2     0.00000834      -440.3468944660 -9.78E-06
    85 OT DIIS     0.15E+00    0.2     0.00000812      -440.3469048652 -1.04E-05
    86 OT DIIS     0.15E+00    0.2     0.00000790      -440.3469147966 -9.93E-06
    87 OT DIIS     0.15E+00    0.2     0.00000769      -440.3469246353 -9.84E-06
    88 OT DIIS     0.15E+00    0.2     0.00000747      -440.3469346833 -1.00E-05
    89 OT DIIS     0.15E+00    0.2     0.00000726      -440.3469441802 -9.50E-06
    90 OT DIIS     0.15E+00    0.2     0.00000704      -440.3469539436 -9.76E-06
    91 OT DIIS     0.15E+00    0.2     0.00000681      -440.3469632882 -9.34E-06
    92 OT DIIS     0.15E+00    0.2     0.00000660      -440.3469721180 -8.83E-06
    93 OT DIIS     0.15E+00    0.2     0.00000637      -440.3469809576 -8.84E-06
    94 OT DIIS     0.15E+00    0.2     0.00000615      -440.3469888576 -7.90E-06
    95 OT DIIS     0.15E+00    0.2     0.00000593      -440.3469960301 -7.17E-06
    96 OT DIIS     0.15E+00    0.2     0.00000572      -440.3470027368 -6.71E-06
    97 OT DIIS     0.15E+00    0.2     0.00000552      -440.3470085173 -5.78E-06
    98 OT DIIS     0.15E+00    0.2     0.00000531      -440.3470138493 -5.33E-06
    99 OT DIIS     0.15E+00    0.2     0.00000512      -440.3470185430 -4.69E-06
   100 OT DIIS     0.15E+00    0.2     0.00000494      -440.3470224405 -3.90E-06
   101 OT DIIS     0.15E+00    0.2     0.00000476      -440.3470260864 -3.65E-06
   102 OT DIIS     0.15E+00    0.2     0.00000460      -440.3470290926 -3.01E-06
   103 OT DIIS     0.15E+00    0.2     0.00000445      -440.3470316791 -2.59E-06
   104 OT DIIS     0.15E+00    0.2     0.00000431      -440.3470340538 -2.37E-06
   105 OT DIIS     0.15E+00    0.2     0.00000417      -440.3470360738 -2.02E-06
   106 OT DIIS     0.15E+00    0.2     0.00000404      -440.3470379835 -1.91E-06
   107 OT DIIS     0.15E+00    0.2     0.00000391      -440.3470396823 -1.70E-06
   108 OT DIIS     0.15E+00    0.2     0.00000379      -440.3470411784 -1.50E-06
   109 OT DIIS     0.15E+00    0.2     0.00000367      -440.3470426405 -1.46E-06
   110 OT DIIS     0.15E+00    0.2     0.00000355      -440.3470438917 -1.25E-06
   111 OT DIIS     0.15E+00    0.2     0.00000343      -440.3470449835 -1.09E-06
   112 OT DIIS     0.15E+00    0.2     0.00000332      -440.3470460001 -1.02E-06
   113 OT DIIS     0.15E+00    0.2     0.00000320      -440.3470468892 -8.89E-07
   114 OT DIIS     0.15E+00    0.2     0.00000309      -440.3470476674 -7.78E-07
   115 OT DIIS     0.15E+00    0.2     0.00000298      -440.3470482973 -6.30E-07
   116 OT DIIS     0.15E+00    0.2     0.00000288      -440.3470487963 -4.99E-07
   117 OT DIIS     0.15E+00    0.2     0.00000277      -440.3470492225 -4.26E-07
   118 OT DIIS     0.15E+00    0.2     0.00000267      -440.3470495327 -3.10E-07
   119 OT DIIS     0.15E+00    0.2     0.00000258      -440.3470497467 -2.14E-07
   120 OT DIIS     0.15E+00    0.2     0.00000250      -440.3470499121 -1.65E-07
   121 OT DIIS     0.15E+00    0.2     0.00000242      -440.3470500392 -1.27E-07
   122 OT DIIS     0.15E+00    0.2     0.00000234      -440.3470501242 -8.50E-08
   123 OT DIIS     0.15E+00    0.2     0.00000227      -440.3470501862 -6.21E-08
   124 OT DIIS     0.15E+00    0.2     0.00000221      -440.3470502360 -4.98E-08
   125 OT DIIS     0.15E+00    0.2     0.00000215      -440.3470502842 -4.82E-08
   126 OT DIIS     0.15E+00    0.2     0.00000209      -440.3470503408 -5.66E-08
   127 OT DIIS     0.15E+00    0.2     0.00000204      -440.3470503937 -5.29E-08
   128 OT DIIS     0.15E+00    0.2     0.00000200      -440.3470504607 -6.70E-08
   129 OT DIIS     0.15E+00    0.2     0.00000195      -440.3470505431 -8.24E-08
   130 OT DIIS     0.15E+00    0.2     0.00000191      -440.3470506384 -9.52E-08
   131 OT DIIS     0.15E+00    0.2     0.00000187      -440.3470507493 -1.11E-07
   132 OT DIIS     0.15E+00    0.2     0.00000183      -440.3470508625 -1.13E-07
   133 OT DIIS     0.15E+00    0.2     0.00000180      -440.3470509916 -1.29E-07
   134 OT DIIS     0.15E+00    0.2     0.00000177      -440.3470511415 -1.50E-07
   135 OT DIIS     0.15E+00    0.2     0.00000173      -440.3470512989 -1.57E-07
   136 OT DIIS     0.15E+00    0.2     0.00000170      -440.3470514686 -1.70E-07
   137 OT DIIS     0.15E+00    0.2     0.00000168      -440.3470516487 -1.80E-07
   138 OT DIIS     0.15E+00    0.2     0.00000165      -440.3470518450 -1.96E-07
   139 OT DIIS     0.15E+00    0.2     0.00000162      -440.3470520624 -2.17E-07
   140 OT DIIS     0.15E+00    0.2     0.00000159      -440.3470522754 -2.13E-07
   141 OT DIIS     0.15E+00    0.2     0.00000157      -440.3470524960 -2.21E-07
   142 OT DIIS     0.15E+00    0.2     0.00000154      -440.3470527335 -2.38E-07
   143 OT DIIS     0.15E+00    0.2     0.00000151      -440.3470529803 -2.47E-07
   144 OT DIIS     0.15E+00    0.2     0.00000149      -440.3470532395 -2.59E-07
   145 OT DIIS     0.15E+00    0.2     0.00000146      -440.3470535014 -2.62E-07
   146 OT DIIS     0.15E+00    0.2     0.00000143      -440.3470537683 -2.67E-07
   147 OT DIIS     0.15E+00    0.2     0.00000141      -440.3470540524 -2.84E-07
   148 OT DIIS     0.15E+00    0.2     0.00000138      -440.3470543305 -2.78E-07
   149 OT DIIS     0.15E+00    0.2     0.00000135      -440.3470546059 -2.75E-07
   150 OT DIIS     0.15E+00    0.2     0.00000132      -440.3470548863 -2.80E-07
   151 OT DIIS     0.15E+00    0.2     0.00000130      -440.3470551570 -2.71E-07
   152 OT DIIS     0.15E+00    0.2     0.00000127      -440.3470554336 -2.77E-07
   153 OT DIIS     0.15E+00    0.2     0.00000124      -440.3470557054 -2.72E-07
   154 OT DIIS     0.15E+00    0.2     0.00000121      -440.3470559594 -2.54E-07
   155 OT DIIS     0.15E+00    0.2     0.00000118      -440.3470562057 -2.46E-07
   156 OT DIIS     0.15E+00    0.2     0.00000115      -440.3470564287 -2.23E-07
   157 OT DIIS     0.15E+00    0.2     0.00000112      -440.3470566389 -2.10E-07
   158 OT DIIS     0.15E+00    0.2     0.00000109      -440.3470568368 -1.98E-07
   159 OT DIIS     0.15E+00    0.2     0.00000106      -440.3470570059 -1.69E-07
   160 OT DIIS     0.15E+00    0.2     0.00000104      -440.3470571615 -1.56E-07
   161 OT DIIS     0.15E+00    0.2     0.00000101      -440.3470573043 -1.43E-07
   162 OT DIIS     0.15E+00    0.2     0.00000098      -440.3470574276 -1.23E-07

  *** SCF run converged in   162 steps ***


  Electronic density on regular grids:       -219.9999999999        0.0000000001
  Core density on regular grids:              219.9999999999       -0.0000000001
  Total charge density on r-space grids:        0.0000000000
  Total charge density g-space grids:           0.0000000000

  Overlap energy of the core charge distribution:               0.00000906633177
  Self energy of the core charge distribution:              -1115.68945094557171
  Core Hamiltonian energy:                                    325.40012908415434
  Hartree energy:                                             459.58204520979729
  Exchange-correlation energy:                               -109.37004151074331
  Dispersion energy:                                           -0.26974833158067

  Total energy:                                              -440.34705742761230

  outer SCF iter =    1 RMS gradient =   0.98E-06 energy =       -440.3470574276
  outer SCF loop converged in   1 iterations or  162 steps


 ENERGY| Total FORCE_EVAL ( QS ) energy [a.u.]:             -440.347057535072850

 --------  Informations at step =     0 ------------
  Optimization Method        =                 BFGS
  Total Energy               =      -440.3470575351
  Used time                  =               26.902
 ---------------------------------------------------

 --------------------------
 OPTIMIZATION STEP:      1
 --------------------------

 Number of electrons:                                                        220
 Number of occupied orbitals:                                                110
 Number of molecular orbitals:                                               110

 Number of orbital functions:                                                626
 Number of independent orbital functions:                                    626

 Extrapolation method: ASPC


 SCF WAVEFUNCTION OPTIMIZATION

  ----------------------------------- OT ---------------------------------------
  Minimizer      : DIIS                : direct inversion
                                         in the iterative subspace
                                         using   7 DIIS vectors
                                         safer DIIS on
  Preconditioner : FULL_KINETIC        : inversion of T + eS
  Precond_solver : DEFAULT
  stepsize       :    0.15000000                  energy_gap     :    0.00100000
  eps_taylor     :   0.10000E-15                  max_taylor     :             4
  ----------------------------------- OT ---------------------------------------

  Step     Update method      Time    Convergence         Total energy    Change
  ------------------------------------------------------------------------------
     1 OT DIIS     0.15E+00    0.1     0.00021482      -440.3470254408 -4.40E+02
     2 OT DIIS     0.15E+00    0.1     0.00015038      -440.3474227137 -3.97E-04
     3 OT DIIS     0.15E+00    0.1     0.00008804      -440.3477963980 -3.74E-04
     4 OT DIIS     0.15E+00    0.1     0.00005986      -440.3479508151 -1.54E-04
     5 OT DIIS     0.15E+00    0.1     0.00003742      -440.3480413592 -9.05E-05
     6 OT DIIS     0.15E+00    0.1     0.00002321      -440.3480800434 -3.87E-05
     7 OT DIIS     0.15E+00    0.1     0.00001581      -440.3480940166 -1.40E-05
     8 OT DIIS     0.15E+00    0.1     0.00001113      -440.3481009898 -6.97E-06
     9 OT DIIS     0.15E+00    0.1     0.00000828      -440.3481046029 -3.61E-06
    10 OT DIIS     0.15E+00    0.1     0.00000629      -440.3481068183 -2.22E-06
    11 OT DIIS     0.15E+00    0.1     0.00000488      -440.3481082011 -1.38E-06
    12 OT DIIS     0.15E+00    0.1     0.00000374      -440.3481091336 -9.32E-07
    13 OT DIIS     0.15E+00    0.1     0.00000277      -440.3481097428 -6.09E-07
    14 OT DIIS     0.15E+00    0.1     0.00000208      -440.3481100635 -3.21E-07
    15 OT DIIS     0.15E+00    0.1     0.00000159      -440.3481102251 -1.62E-07
    16 OT DIIS     0.15E+00    0.1     0.00000120      -440.3481103166 -9.15E-08
    17 OT DIIS     0.15E+00    0.1     0.00000093      -440.3481103657 -4.91E-08

  *** SCF run converged in    17 steps ***


  Electronic density on regular grids:       -219.9999999997        0.0000000003
  Core density on regular grids:              219.9999999999       -0.0000000001
  Total charge density on r-space grids:        0.0000000002
  Total charge density g-space grids:           0.0000000002

  Overlap energy of the core charge distribution:               0.00000960741700
  Self energy of the core charge distribution:              -1115.68945094557171
  Core Hamiltonian energy:                                    325.58645012273945
  Hartree energy:                                             459.44463182622263
  Exchange-correlation energy:                               -109.41875282331709
  Dispersion energy:                                           -0.27099815314713

  Total energy:                                              -440.34811036565674

  outer SCF iter =    1 RMS gradient =   0.93E-06 energy =       -440.3481103657
  outer SCF loop converged in   1 iterations or   17 steps


 ENERGY| Total FORCE_EVAL ( QS ) energy [a.u.]:             -440.348110396213144

 --------  Informations at step =     1 ------------
  Optimization Method        =                 BFGS
  Total Energy               =      -440.3481103962
  Real energy change         =        -0.0010528611
  Predicted change in energy =        -0.0009849194
  Scaling factor             =         0.0000000000
  Step size                  =         0.0222610390
  Trust radius               =         0.1889726133
  Decrease in energy         =                  YES
  Used time                  =                4.212

  Convergence check :
  Max. step size             =         0.0222610390
  Conv. limit for step size  =         0.0002000000
  Convergence in step size   =                   NO
  RMS step size              =         0.0087285919
  Conv. limit for RMS step   =         0.0001000000
  Convergence in RMS step    =                   NO
  Max. gradient              =         0.0029005064
  Conv. limit for gradients  =         0.0002000000
  Conv. for gradients        =                   NO
  RMS gradient               =         0.0009898858
  Conv. limit for RMS grad.  =         0.0001000000
  Conv. for gradients        =                   NO
 ---------------------------------------------------
 Estimated peak process memory after this step [MiB]                         283

 --------------------------
 OPTIMIZATION STEP:      2
 --------------------------

 Number of electrons:                                                        220
 Number of occupied orbitals:                                                110
 Number of molecular orbitals:                                               110

 Number of orbital functions:                                                626
 Number of independent orbital functions:                                    626

 Extrapolation method: ASPC


 SCF WAVEFUNCTION OPTIMIZATION

  ----------------------------------- OT ---------------------------------------
  Minimizer      : DIIS                : direct inversion
                                         in the iterative subspace
                                         using   7 DIIS vectors
                                         safer DIIS on
  Preconditioner : FULL_KINETIC        : inversion of T + eS
  Precond_solver : DEFAULT
  stepsize       :    0.15000000                  energy_gap     :    0.00100000
  eps_taylor     :   0.10000E-15                  max_taylor     :             4
  ----------------------------------- OT ---------------------------------------

  Step     Update method      Time    Convergence         Total energy    Change
  ------------------------------------------------------------------------------
     1 OT DIIS     0.15E+00    0.1     0.00027659      -440.3464854386 -4.40E+02
     2 OT DIIS     0.15E+00    0.1     0.00020267      -440.3471594632 -6.74E-04
     3 OT DIIS     0.15E+00    0.1     0.00011875      -440.3479094139 -7.50E-04
     4 OT DIIS     0.15E+00    0.1     0.00007640      -440.3482369460 -3.28E-04
     5 OT DIIS     0.15E+00    0.1     0.00004369      -440.3484043579 -1.67E-04
     6 OT DIIS     0.15E+00    0.1     0.00002811      -440.3484534332 -4.91E-05
     7 OT DIIS     0.15E+00    0.1     0.00001851      -440.3484731914 -1.98E-05
     8 OT DIIS     0.15E+00    0.1     0.00001273      -440.3484825084 -9.32E-06
     9 OT DIIS     0.15E+00    0.1     0.00000974      -440.3484866720 -4.16E-06
    10 OT DIIS     0.15E+00    0.1     0.00000737      -440.3484896648 -2.99E-06
    11 OT DIIS     0.15E+00    0.1     0.00000574      -440.3484915347 -1.87E-06
    12 OT DIIS     0.15E+00    0.1     0.00000441      -440.3484928025 -1.27E-06
    13 OT DIIS     0.15E+00    0.1     0.00000324      -440.3484936507 -8.48E-07
    14 OT DIIS     0.15E+00    0.1     0.00000242      -440.3484940779 -4.27E-07
    15 OT DIIS     0.15E+00    0.1     0.00000180      -440.3484942935 -2.16E-07
    16 OT DIIS     0.15E+00    0.1     0.00000133      -440.3484944078 -1.14E-07
    17 OT DIIS     0.15E+00    0.1     0.00000102      -440.3484944638 -5.60E-08
    18 OT DIIS     0.15E+00    0.1     0.00000076      -440.3484944978 -3.40E-08

  *** SCF run converged in    18 steps ***


  Electronic density on regular grids:       -219.9999999996        0.0000000004
  Core density on regular grids:              219.9999999999       -0.0000000001
  Total charge density on r-space grids:        0.0000000003
  Total charge density g-space grids:           0.0000000003

  Overlap energy of the core charge distribution:               0.00001004546271
  Self energy of the core charge distribution:              -1115.68945094557171
  Core Hamiltonian energy:                                    325.74163480526721
  Hartree energy:                                             459.33005658680861
  Exchange-correlation energy:                               -109.45876022448256
  Dispersion energy:                                           -0.27198476528773

  Total energy:                                              -440.34849449780347

  outer SCF iter =    1 RMS gradient =   0.76E-06 energy =       -440.3484944978
  outer SCF loop converged in   1 iterations or   18 steps


 ENERGY| Total FORCE_EVAL ( QS ) energy [a.u.]:             -440.348494516602386

 --------  Informations at step =     2 ------------
  Optimization Method        =                 BFGS
  Total Energy               =      -440.3484945166
  Real energy change         =        -0.0003841204
  Predicted change in energy =        -0.0005539733
  Scaling factor             =         0.0000000000
  Step size                  =         0.0218168924
  Trust radius               =         0.1889726133
  Decrease in energy         =                  YES
  Used time                  =                4.490

  Convergence check :
  Max. step size             =         0.0218168924
  Conv. limit for step size  =         0.0002000000
  Convergence in step size   =                   NO
  RMS step size              =         0.0089876761
  Conv. limit for RMS step   =         0.0001000000
  Convergence in RMS step    =                   NO
  Max. gradient              =         0.0034640725
  Conv. limit for gradients  =         0.0002000000
  Conv. for gradients        =                   NO
  RMS gradient               =         0.0009878108
  Conv. limit for RMS grad.  =         0.0001000000
  Conv. for gradients        =                   NO
 ---------------------------------------------------
 Estimated peak process memory after this step [MiB]                         284

 --------------------------
 OPTIMIZATION STEP:      3
 --------------------------

 Number of electrons:                                                        220
 Number of occupied orbitals:                                                110
 Number of molecular orbitals:                                               110

 Number of orbital functions:                                                626
 Number of independent orbital functions:                                    626

 Extrapolation method: ASPC


 SCF WAVEFUNCTION OPTIMIZATION

  ----------------------------------- OT ---------------------------------------
  Minimizer      : DIIS                : direct inversion
                                         in the iterative subspace
                                         using   7 DIIS vectors
                                         safer DIIS on
  Preconditioner : FULL_KINETIC        : inversion of T + eS
  Precond_solver : DEFAULT
  stepsize       :    0.15000000                  energy_gap     :    0.00100000
  eps_taylor     :   0.10000E-15                  max_taylor     :             4
  ----------------------------------- OT ---------------------------------------

  Step     Update method      Time    Convergence         Total energy    Change
  ------------------------------------------------------------------------------
     1 OT DIIS     0.15E+00    0.1     0.00039153      -440.3447820476 -4.40E+02
     2 OT DIIS     0.15E+00    0.1     0.00028638      -440.3461330459 -1.35E-03
     3 OT DIIS     0.15E+00    0.1     0.00016352      -440.3476431156 -1.51E-03
     4 OT DIIS     0.15E+00    0.1     0.00010312      -440.3482566375 -6.14E-04
     5 OT DIIS     0.15E+00    0.1     0.00005882      -440.3485473818 -2.91E-04
     6 OT DIIS     0.15E+00    0.1     0.00003741      -440.3486326524 -8.53E-05
     7 OT DIIS     0.15E+00    0.1     0.00002431      -440.3486664861 -3.38E-05
     8 OT DIIS     0.15E+00    0.1     0.00001597      -440.3486823117 -1.58E-05
     9 OT DIIS     0.15E+00    0.1     0.00001176      -440.3486886896 -6.38E-06
    10 OT DIIS     0.15E+00    0.1     0.00000856      -440.3486928178 -4.13E-06
    11 OT DIIS     0.15E+00    0.1     0.00000660      -440.3486951062 -2.29E-06
    12 OT DIIS     0.15E+00    0.1     0.00000515      -440.3486965903 -1.48E-06
    13 OT DIIS     0.15E+00    0.1     0.00000387      -440.3486976542 -1.06E-06
    14 OT DIIS     0.15E+00    0.1     0.00000290      -440.3486982605 -6.06E-07
    15 OT DIIS     0.15E+00    0.1     0.00000212      -440.3486985859 -3.25E-07
    16 OT DIIS     0.15E+00    0.1     0.00000154      -440.3486987522 -1.66E-07
    17 OT DIIS     0.15E+00    0.1     0.00000116      -440.3486988259 -7.37E-08
    18 OT DIIS     0.15E+00    0.1     0.00000086      -440.3486988683 -4.24E-08

  *** SCF run converged in    18 steps ***


  Electronic density on regular grids:       -219.9999999995        0.0000000005
  Core density on regular grids:              219.9999999999       -0.0000000001
  Total charge density on r-space grids:        0.0000000003
  Total charge density g-space grids:           0.0000000003

  Overlap energy of the core charge distribution:               0.00000999251360
  Self energy of the core charge distribution:              -1115.68945094557171
  Core Hamiltonian energy:                                    325.73112823836431
  Hartree energy:                                             459.33760411497281
  Exchange-correlation energy:                               -109.45607540547131
  Dispersion energy:                                           -0.27191486313588

  Total energy:                                              -440.34869886832803

  outer SCF iter =    1 RMS gradient =   0.86E-06 energy =       -440.3486988683
  outer SCF loop converged in   1 iterations or   18 steps


 ENERGY| Total FORCE_EVAL ( QS ) energy [a.u.]:             -440.348698891570109

 --------  Informations at step =     3 ------------
  Optimization Method        =                 BFGS
  Total Energy               =      -440.3486988916
  Real energy change         =        -0.0002043750
  Predicted change in energy =        -0.0002759158
  Scaling factor             =         0.0000000000
  Step size                  =         0.0148828481
  Trust radius               =         0.1889726133
  Decrease in energy         =                  YES
  Used time                  =                4.363

  Convergence check :
  Max. step size             =         0.0148828481
  Conv. limit for step size  =         0.0002000000
  Convergence in step size   =                   NO
  RMS step size              =         0.0049742256
  Conv. limit for RMS step   =         0.0001000000
  Convergence in RMS step    =                   NO
  Max. gradient              =         0.0024009377
  Conv. limit for gradients  =         0.0002000000
  Conv. for gradients        =                   NO
  RMS gradient               =         0.0007357492
  Conv. limit for RMS grad.  =         0.0001000000
  Conv. for gradients        =                   NO
 ---------------------------------------------------
 Estimated peak process memory after this step [MiB]                         286

 --------------------------
 OPTIMIZATION STEP:      4
 --------------------------

 Number of electrons:                                                        220
 Number of occupied orbitals:                                                110
 Number of molecular orbitals:                                               110

 Number of orbital functions:                                                626
 Number of independent orbital functions:                                    626

 Extrapolation method: ASPC


 SCF WAVEFUNCTION OPTIMIZATION

  ----------------------------------- OT ---------------------------------------
  Minimizer      : DIIS                : direct inversion
                                         in the iterative subspace
                                         using   7 DIIS vectors
                                         safer DIIS on
  Preconditioner : FULL_KINETIC        : inversion of T + eS
  Precond_solver : DEFAULT
  stepsize       :    0.15000000                  energy_gap     :    0.00100000
  eps_taylor     :   0.10000E-15                  max_taylor     :             4
  ----------------------------------- OT ---------------------------------------

  Step     Update method      Time    Convergence         Total energy    Change
  ------------------------------------------------------------------------------
     1 OT DIIS     0.15E+00    0.1     0.00039623      -440.3449075237 -4.40E+02
     2 OT DIIS     0.15E+00    0.1     0.00029071      -440.3462946829 -1.39E-03
     3 OT DIIS     0.15E+00    0.1     0.00016185      -440.3478794785 -1.58E-03
     4 OT DIIS     0.15E+00    0.1     0.00009673      -440.3485010916 -6.22E-04
     5 OT DIIS     0.15E+00    0.1     0.00005327      -440.3487571931 -2.56E-04
     6 OT DIIS     0.15E+00    0.1     0.00003475      -440.3488221154 -6.49E-05
     7 OT DIIS     0.15E+00    0.1     0.00002198      -440.3488508727 -2.88E-05
     8 OT DIIS     0.15E+00    0.1     0.00001365      -440.3488637811 -1.29E-05
     9 OT DIIS     0.15E+00    0.1     0.00000965      -440.3488682629 -4.48E-06
    10 OT DIIS     0.15E+00    0.1     0.00000668      -440.3488708594 -2.60E-06
    11 OT DIIS     0.15E+00    0.1     0.00000505      -440.3488721014 -1.24E-06
    12 OT DIIS     0.15E+00    0.1     0.00000397      -440.3488728514 -7.50E-07
    13 OT DIIS     0.15E+00    0.1     0.00000306      -440.3488734034 -5.52E-07
    14 OT DIIS     0.15E+00    0.1     0.00000232      -440.3488737580 -3.55E-07
    15 OT DIIS     0.15E+00    0.1     0.00000168      -440.3488739736 -2.16E-07
    16 OT DIIS     0.15E+00    0.1     0.00000122      -440.3488740815 -1.08E-07
    17 OT DIIS     0.15E+00    0.1     0.00000091      -440.3488741294 -4.79E-08

  *** SCF run converged in    17 steps ***


  Electronic density on regular grids:       -219.9999999995        0.0000000005
  Core density on regular grids:              219.9999999999       -0.0000000001
  Total charge density on r-space grids:        0.0000000004
  Total charge density g-space grids:           0.0000000004

  Overlap energy of the core charge distribution:               0.00000981313681
  Self energy of the core charge distribution:              -1115.68945094557171
  Core Hamiltonian energy:                                    325.67909700101467
  Hartree energy:                                             459.37585109720777
  Exchange-correlation energy:                               -109.44276522226200
  Dispersion energy:                                           -0.27161587290977

  Total energy:                                              -440.34887412938417

  outer SCF iter =    1 RMS gradient =   0.91E-06 energy =       -440.3488741294
  outer SCF loop converged in   1 iterations or   17 steps


 ENERGY| Total FORCE_EVAL ( QS ) energy [a.u.]:             -440.348874156368538

 --------  Informations at step =     4 ------------
  Optimization Method        =                 BFGS
  Total Energy               =      -440.3488741564
  Real energy change         =        -0.0001752648
  Predicted change in energy =        -0.0001469535
  Scaling factor             =         0.0000000000
  Step size                  =         0.0093082033
  Trust radius               =         0.1889726133
  Decrease in energy         =                  YES
  Used time                  =                4.229

  Convergence check :
  Max. step size             =         0.0093082033
  Conv. limit for step size  =         0.0002000000
  Convergence in step size   =                   NO
  RMS step size              =         0.0034223972
  Conv. limit for RMS step   =         0.0001000000
  Convergence in RMS step    =                   NO
  Max. gradient              =         0.0010041178
  Conv. limit for gradients  =         0.0002000000
  Conv. for gradients        =                   NO
  RMS gradient               =         0.0003089298
  Conv. limit for RMS grad.  =         0.0001000000
  Conv. for gradients        =                   NO
 ---------------------------------------------------
 Estimated peak process memory after this step [MiB]                         287

 --------------------------
 OPTIMIZATION STEP:      5
 --------------------------

 Number of electrons:                                                        220
 Number of occupied orbitals:                                                110
 Number of molecular orbitals:                                               110

 Number of orbital functions:                                                626
 Number of independent orbital functions:                                    626

 Extrapolation method: ASPC


 SCF WAVEFUNCTION OPTIMIZATION

  ----------------------------------- OT ---------------------------------------
  Minimizer      : DIIS                : direct inversion
                                         in the iterative subspace
                                         using   7 DIIS vectors
                                         safer DIIS on
  Preconditioner : FULL_KINETIC        : inversion of T + eS
  Precond_solver : DEFAULT
  stepsize       :    0.15000000                  energy_gap     :    0.00100000
  eps_taylor     :   0.10000E-15                  max_taylor     :             4
  ----------------------------------- OT ---------------------------------------

  Step     Update method      Time    Convergence         Total energy    Change
  ------------------------------------------------------------------------------
     1 OT DIIS     0.15E+00    0.1     0.00029776      -440.3467544068 -4.40E+02
     2 OT DIIS     0.15E+00    0.1     0.00021856      -440.3475372259 -7.83E-04
     3 OT DIIS     0.15E+00    0.1     0.00012448      -440.3484244807 -8.87E-04
     4 OT DIIS     0.15E+00    0.1     0.00007717      -440.3487882101 -3.64E-04
     5 OT DIIS     0.15E+00    0.1     0.00004254      -440.3489570595 -1.69E-04
     6 OT DIIS     0.15E+00    0.1     0.00002751      -440.3490010067 -4.39E-05
     7 OT DIIS     0.15E+00    0.1     0.00001762      -440.3490193133 -1.83E-05
     8 OT DIIS     0.15E+00    0.1     0.00001126      -440.3490276905 -8.38E-06
     9 OT DIIS     0.15E+00    0.1     0.00000817      -440.3490307927 -3.10E-06
    10 OT DIIS     0.15E+00    0.1     0.00000580      -440.3490327516 -1.96E-06
    11 OT DIIS     0.15E+00    0.1     0.00000447      -440.3490337349 -9.83E-07
    12 OT DIIS     0.15E+00    0.1     0.00000348      -440.3490343743 -6.39E-07
    13 OT DIIS     0.15E+00    0.1     0.00000264      -440.3490348251 -4.51E-07
    14 OT DIIS     0.15E+00    0.1     0.00000200      -440.3490350928 -2.68E-07
    15 OT DIIS     0.15E+00    0.1     0.00000147      -440.3490352456 -1.53E-07
    16 OT DIIS     0.15E+00    0.1     0.00000108      -440.3490353240 -7.84E-08
    17 OT DIIS     0.15E+00    0.1     0.00000082      -440.3490353606 -3.66E-08

  *** SCF run converged in    17 steps ***


  Electronic density on regular grids:       -219.9999999994        0.0000000006
  Core density on regular grids:              219.9999999999       -0.0000000001
  Total charge density on r-space grids:        0.0000000004
  Total charge density g-space grids:           0.0000000004

  Overlap energy of the core charge distribution:               0.00000973315626
  Self energy of the core charge distribution:              -1115.68945094557171
  Core Hamiltonian energy:                                    325.66691351348413
  Hartree energy:                                             459.38479448482639
  Exchange-correlation energy:                               -109.43971891096328
  Dispersion energy:                                           -0.27158323557189

  Total energy:                                              -440.34903536064007

  outer SCF iter =    1 RMS gradient =   0.82E-06 energy =       -440.3490353606
  outer SCF loop converged in   1 iterations or   17 steps


 ENERGY| Total FORCE_EVAL ( QS ) energy [a.u.]:             -440.349035383058549

 --------  Informations at step =     5 ------------
  Optimization Method        =                 BFGS
  Total Energy               =      -440.3490353831
  Real energy change         =        -0.0001612267
  Predicted change in energy =        -0.0001117038
  Scaling factor             =         0.0000000000
  Step size                  =         0.0211028339
  Trust radius               =         0.1889726133
  Decrease in energy         =                  YES
  Used time                  =                4.239

  Convergence check :
  Max. step size             =         0.0211028339
  Conv. limit for step size  =         0.0002000000
  Convergence in step size   =                   NO
  RMS step size              =         0.0055400951
  Conv. limit for RMS step   =         0.0001000000
  Convergence in RMS step    =                   NO
  Max. gradient              =         0.0009249325
  Conv. limit for gradients  =         0.0002000000
  Conv. for gradients        =                   NO
  RMS gradient               =         0.0003345725
  Conv. limit for RMS grad.  =         0.0001000000
  Conv. for gradients        =                   NO
 ---------------------------------------------------
 Estimated peak process memory after this step [MiB]                         289

 --------------------------
 OPTIMIZATION STEP:      6
 --------------------------

 Number of electrons:                                                        220
 Number of occupied orbitals:                                                110
 Number of molecular orbitals:                                               110

 Number of orbital functions:                                                626
 Number of independent orbital functions:                                    626

 Extrapolation method: ASPC


 SCF WAVEFUNCTION OPTIMIZATION

  ----------------------------------- OT ---------------------------------------
  Minimizer      : DIIS                : direct inversion
                                         in the iterative subspace
                                         using   7 DIIS vectors
                                         safer DIIS on
  Preconditioner : FULL_KINETIC        : inversion of T + eS
  Precond_solver : DEFAULT
  stepsize       :    0.15000000                  energy_gap     :    0.00100000
  eps_taylor     :   0.10000E-15                  max_taylor     :             4
  ----------------------------------- OT ---------------------------------------

  Step     Update method      Time    Convergence         Total energy    Change
  ------------------------------------------------------------------------------
     1 OT DIIS     0.15E+00    0.1     0.00014471      -440.3486484951 -4.40E+02
     2 OT DIIS     0.15E+00    0.1     0.00010584      -440.3488326571 -1.84E-04
     3 OT DIIS     0.15E+00    0.1     0.00006314      -440.3490340030 -2.01E-04
     4 OT DIIS     0.15E+00    0.1     0.00004212      -440.3491235058 -8.95E-05
     5 OT DIIS     0.15E+00    0.1     0.00002528      -440.3491734860 -5.00E-05
     6 OT DIIS     0.15E+00    0.1     0.00001603      -440.3491911367 -1.77E-05
     7 OT DIIS     0.15E+00    0.1     0.00001096      -440.3491976402 -6.50E-06
     8 OT DIIS     0.15E+00    0.1     0.00000766      -440.3492010424 -3.40E-06
     9 OT DIIS     0.15E+00    0.1     0.00000587      -440.3492026583 -1.62E-06
    10 OT DIIS     0.15E+00    0.1     0.00000440      -440.3492038299 -1.17E-06
    11 OT DIIS     0.15E+00    0.1     0.00000341      -440.3492045208 -6.91E-07
    12 OT DIIS     0.15E+00    0.1     0.00000256      -440.3492049886 -4.68E-07
    13 OT DIIS     0.15E+00    0.1     0.00000191      -440.3492052670 -2.78E-07
    14 OT DIIS     0.15E+00    0.1     0.00000146      -440.3492054066 -1.40E-07
    15 OT DIIS     0.15E+00    0.1     0.00000112      -440.3492054816 -7.50E-08
    16 OT DIIS     0.15E+00    0.1     0.00000085      -440.3492055275 -4.59E-08

  *** SCF run converged in    16 steps ***


  Electronic density on regular grids:       -219.9999999994        0.0000000006
  Core density on regular grids:              219.9999999999       -0.0000000001
  Total charge density on r-space grids:        0.0000000005
  Total charge density g-space grids:           0.0000000005

  Overlap energy of the core charge distribution:               0.00000971579572
  Self energy of the core charge distribution:              -1115.68945094557171
  Core Hamiltonian energy:                                    325.68215243815928
  Hartree energy:                                             459.37367584848460
  Exchange-correlation energy:                               -109.44383436255329
  Dispersion energy:                                           -0.27175822179604

  Total energy:                                              -440.34920552748156

  outer SCF iter =    1 RMS gradient =   0.85E-06 energy =       -440.3492055275
  outer SCF loop converged in   1 iterations or   16 steps


 ENERGY| Total FORCE_EVAL ( QS ) energy [a.u.]:             -440.349205551918203

 --------  Informations at step =     6 ------------
  Optimization Method        =                 BFGS
  Total Energy               =      -440.3492055519
  Real energy change         =        -0.0001701689
  Predicted change in energy =        -0.0001365826
  Scaling factor             =         0.0000000000
  Step size                  =         0.0399317576
  Trust radius               =         0.1889726133
  Decrease in energy         =                  YES
  Used time                  =                4.064

  Convergence check :
  Max. step size             =         0.0399317576
  Conv. limit for step size  =         0.0002000000
  Convergence in step size   =                   NO
  RMS step size              =         0.0102582051
  Conv. limit for RMS step   =         0.0001000000
  Convergence in RMS step    =                   NO
  Max. gradient              =         0.0015648002
  Conv. limit for gradients  =         0.0002000000
  Conv. for gradients        =                   NO
  RMS gradient               =         0.0005237253
  Conv. limit for RMS grad.  =         0.0001000000
  Conv. for gradients        =                   NO
 ---------------------------------------------------
 Estimated peak process memory after this step [MiB]                         290

 --------------------------
 OPTIMIZATION STEP:      7
 --------------------------

 Number of electrons:                                                        220
 Number of occupied orbitals:                                                110
 Number of molecular orbitals:                                               110

 Number of orbital functions:                                                626
 Number of independent orbital functions:                                    626

 Extrapolation method: ASPC


 SCF WAVEFUNCTION OPTIMIZATION

  ----------------------------------- OT ---------------------------------------
  Minimizer      : DIIS                : direct inversion
                                         in the iterative subspace
                                         using   7 DIIS vectors
                                         safer DIIS on
  Preconditioner : FULL_KINETIC        : inversion of T + eS
  Precond_solver : DEFAULT
  stepsize       :    0.15000000                  energy_gap     :    0.00100000
  eps_taylor     :   0.10000E-15                  max_taylor     :             4
  ----------------------------------- OT ---------------------------------------

  Step     Update method      Time    Convergence         Total energy    Change
  ------------------------------------------------------------------------------
     1 OT DIIS     0.15E+00    0.1     0.00013560      -440.3488964317 -4.40E+02
     2 OT DIIS     0.15E+00    0.1     0.00009891      -440.3490581228 -1.62E-04
     3 OT DIIS     0.15E+00    0.1     0.00005761      -440.3492354194 -1.77E-04
     4 OT DIIS     0.15E+00    0.1     0.00003749      -440.3493105197 -7.51E-05
     5 OT DIIS     0.15E+00    0.1     0.00002229      -440.3493492131 -3.87E-05
     6 OT DIIS     0.15E+00    0.1     0.00001400      -440.3493624633 -1.33E-05
     7 OT DIIS     0.15E+00    0.1     0.00000920      -440.3493674793 -5.02E-06
     8 OT DIIS     0.15E+00    0.1     0.00000626      -440.3493697910 -2.31E-06
     9 OT DIIS     0.15E+00    0.1     0.00000470      -440.3493708015 -1.01E-06
    10 OT DIIS     0.15E+00    0.1     0.00000345      -440.3493714966 -6.95E-07
    11 OT DIIS     0.15E+00    0.1     0.00000263      -440.3493718921 -3.96E-07
    12 OT DIIS     0.15E+00    0.1     0.00000199      -440.3493721477 -2.56E-07
    13 OT DIIS     0.15E+00    0.1     0.00000149      -440.3493723025 -1.55E-07
    14 OT DIIS     0.15E+00    0.1     0.00000114      -440.3493723851 -8.26E-08
    15 OT DIIS     0.15E+00    0.1     0.00000087      -440.3493724306 -4.55E-08

  *** SCF run converged in    15 steps ***


  Electronic density on regular grids:       -219.9999999993        0.0000000007
  Core density on regular grids:              219.9999999999       -0.0000000001
  Total charge density on r-space grids:        0.0000000005
  Total charge density g-space grids:           0.0000000005

  Overlap energy of the core charge distribution:               0.00000974266195
  Self energy of the core charge distribution:              -1115.68945094557171
  Core Hamiltonian energy:                                    325.70243255612678
  Hartree energy:                                             459.35895486895942
  Exchange-correlation energy:                               -109.44935467019955
  Dispersion energy:                                           -0.27196398262279

  Total energy:                                              -440.34937243064604

  outer SCF iter =    1 RMS gradient =   0.87E-06 energy =       -440.3493724306
  outer SCF loop converged in   1 iterations or   15 steps


 ENERGY| Total FORCE_EVAL ( QS ) energy [a.u.]:             -440.349372457358129

 --------  Informations at step =     7 ------------
  Optimization Method        =                 BFGS
  Total Energy               =      -440.3493724574
  Real energy change         =        -0.0001669054
  Predicted change in energy =        -0.0001341140
  Scaling factor             =         0.0000000000
  Step size                  =         0.0436843873
  Trust radius               =         0.1889726133
  Decrease in energy         =                  YES
  Used time                  =                4.360

  Convergence check :
  Max. step size             =         0.0436843873
  Conv. limit for step size  =         0.0002000000
  Convergence in step size   =                   NO
  RMS step size              =         0.0103298466
  Conv. limit for RMS step   =         0.0001000000
  Convergence in RMS step    =                   NO
  Max. gradient              =         0.0016335027
  Conv. limit for gradients  =         0.0002000000
  Conv. for gradients        =                   NO
  RMS gradient               =         0.0005786090
  Conv. limit for RMS grad.  =         0.0001000000
  Conv. for gradients        =                   NO
 ---------------------------------------------------
 Estimated peak process memory after this step [MiB]                         291

 --------------------------
 OPTIMIZATION STEP:      8
 --------------------------

 Number of electrons:                                                        220
 Number of occupied orbitals:                                                110
 Number of molecular orbitals:                                               110

 Number of orbital functions:                                                626
 Number of independent orbital functions:                                    626

 Extrapolation method: ASPC


 SCF WAVEFUNCTION OPTIMIZATION

  ----------------------------------- OT ---------------------------------------
  Minimizer      : DIIS                : direct inversion
                                         in the iterative subspace
                                         using   7 DIIS vectors
                                         safer DIIS on
  Preconditioner : FULL_KINETIC        : inversion of T + eS
  Precond_solver : DEFAULT
  stepsize       :    0.15000000                  energy_gap     :    0.00100000
  eps_taylor     :   0.10000E-15                  max_taylor     :             4
  ----------------------------------- OT ---------------------------------------

  Step     Update method      Time    Convergence         Total energy    Change
  ------------------------------------------------------------------------------
     1 OT DIIS     0.15E+00    0.1     0.00019716      -440.3486319531 -4.40E+02
     2 OT DIIS     0.15E+00    0.1     0.00014519      -440.3489756214 -3.44E-04
     3 OT DIIS     0.15E+00    0.1     0.00008345      -440.3493690081 -3.93E-04
     4 OT DIIS     0.15E+00    0.1     0.00005354      -440.3495296406 -1.61E-04
     5 OT DIIS     0.15E+00    0.1     0.00003056      -440.3496100515 -8.04E-05
     6 OT DIIS     0.15E+00    0.1     0.00001883      -440.3496345533 -2.45E-05
     7 OT DIIS     0.15E+00    0.1     0.00001184      -440.3496435213 -8.97E-06
     8 OT DIIS     0.15E+00    0.1     0.00000791      -440.3496471907 -3.67E-06
     9 OT DIIS     0.15E+00    0.1     0.00000592      -440.3496486702 -1.48E-06
    10 OT DIIS     0.15E+00    0.1     0.00000426      -440.3496497202 -1.05E-06
    11 OT DIIS     0.15E+00    0.1     0.00000326      -440.3496502808 -5.61E-07
    12 OT DIIS     0.15E+00    0.1     0.00000249      -440.3496506506 -3.70E-07
    13 OT DIIS     0.15E+00    0.1     0.00000191      -440.3496508830 -2.32E-07
    14 OT DIIS     0.15E+00    0.1     0.00000147      -440.3496510185 -1.36E-07
    15 OT DIIS     0.15E+00    0.1     0.00000111      -440.3496510995 -8.10E-08
    16 OT DIIS     0.15E+00    0.1     0.00000082      -440.3496511467 -4.72E-08

  *** SCF run converged in    16 steps ***


  Electronic density on regular grids:       -219.9999999993        0.0000000007
  Core density on regular grids:              219.9999999999       -0.0000000001
  Total charge density on r-space grids:        0.0000000005
  Total charge density g-space grids:           0.0000000005

  Overlap energy of the core charge distribution:               0.00000982579859
  Self energy of the core charge distribution:              -1115.68945094557171
  Core Hamiltonian energy:                                    325.73626101566117
  Hartree energy:                                             459.33463590002356
  Exchange-correlation energy:                               -109.45879544162236
  Dispersion energy:                                           -0.27231150098256

  Total energy:                                              -440.34965114669336

  outer SCF iter =    1 RMS gradient =   0.82E-06 energy =       -440.3496511467
  outer SCF loop converged in   1 iterations or   16 steps


 ENERGY| Total FORCE_EVAL ( QS ) energy [a.u.]:             -440.349651170147467

 --------  Informations at step =     8 ------------
  Optimization Method        =                 BFGS
  Total Energy               =      -440.3496511701
  Real energy change         =        -0.0002787128
  Predicted change in energy =        -0.0002430090
  Scaling factor             =         0.0000000000
  Step size                  =         0.0821555860
  Trust radius               =         0.1889726133
  Decrease in energy         =                  YES
  Used time                  =                4.073

  Convergence check :
  Max. step size             =         0.0821555860
  Conv. limit for step size  =         0.0002000000
  Convergence in step size   =                   NO
  RMS step size              =         0.0186004362
  Conv. limit for RMS step   =         0.0001000000
  Convergence in RMS step    =                   NO
  Max. gradient              =         0.0026816770
  Conv. limit for gradients  =         0.0002000000
  Conv. for gradients        =                   NO
  RMS gradient               =         0.0006371072
  Conv. limit for RMS grad.  =         0.0001000000
  Conv. for gradients        =                   NO
 ---------------------------------------------------
 Estimated peak process memory after this step [MiB]                         292

 --------------------------
 OPTIMIZATION STEP:      9
 --------------------------

 Number of electrons:                                                        220
 Number of occupied orbitals:                                                110
 Number of molecular orbitals:                                               110

 Number of orbital functions:                                                626
 Number of independent orbital functions:                                    626

 Extrapolation method: ASPC


 SCF WAVEFUNCTION OPTIMIZATION

  ----------------------------------- OT ---------------------------------------
  Minimizer      : DIIS                : direct inversion
                                         in the iterative subspace
                                         using   7 DIIS vectors
                                         safer DIIS on
  Preconditioner : FULL_KINETIC        : inversion of T + eS
  Precond_solver : DEFAULT
  stepsize       :    0.15000000                  energy_gap     :    0.00100000
  eps_taylor     :   0.10000E-15                  max_taylor     :             4
  ----------------------------------- OT ---------------------------------------

  Step     Update method      Time    Convergence         Total energy    Change
  ------------------------------------------------------------------------------
     1 OT DIIS     0.15E+00    0.1     0.00022987      -440.3486313125 -4.40E+02
     2 OT DIIS     0.15E+00    0.1     0.00016735      -440.3490954556 -4.64E-04
     3 OT DIIS     0.15E+00    0.1     0.00009734      -440.3495994414 -5.04E-04
     4 OT DIIS     0.15E+00    0.1     0.00006436      -440.3498055452 -2.06E-04
     5 OT DIIS     0.15E+00    0.1     0.00003783      -440.3499171398 -1.12E-04
     6 OT DIIS     0.15E+00    0.1     0.00002281      -440.3499558321 -3.87E-05
     7 OT DIIS     0.15E+00    0.1     0.00001475      -440.3499686863 -1.29E-05
     8 OT DIIS     0.15E+00    0.1     0.00000989      -440.3499742839 -5.60E-06
     9 OT DIIS     0.15E+00    0.1     0.00000732      -440.3499766961 -2.41E-06
    10 OT DIIS     0.15E+00    0.1     0.00000532      -440.3499783032 -1.61E-06
    11 OT DIIS     0.15E+00    0.1     0.00000405      -440.3499792255 -9.22E-07
    12 OT DIIS     0.15E+00    0.1     0.00000311      -440.3499798026 -5.77E-07
    13 OT DIIS     0.15E+00    0.1     0.00000237      -440.3499801757 -3.73E-07
    14 OT DIIS     0.15E+00    0.1     0.00000183      -440.3499803910 -2.15E-07
    15 OT DIIS     0.15E+00    0.1     0.00000139      -440.3499805179 -1.27E-07
    16 OT DIIS     0.15E+00    0.1     0.00000103      -440.3499805936 -7.58E-08
    17 OT DIIS     0.15E+00    0.1     0.00000079      -440.3499806309 -3.72E-08

  *** SCF run converged in    17 steps ***


  Electronic density on regular grids:       -219.9999999993        0.0000000007
  Core density on regular grids:              219.9999999999       -0.0000000001
  Total charge density on r-space grids:        0.0000000006
  Total charge density g-space grids:           0.0000000006

  Overlap energy of the core charge distribution:               0.00000988733789
  Self energy of the core charge distribution:              -1115.68945094557171
  Core Hamiltonian energy:                                    325.74927874007733
  Hartree energy:                                             459.32559981519034
  Exchange-correlation energy:                               -109.46290331547925
  Dispersion energy:                                           -0.27251481242280

  Total energy:                                              -440.34998063086817

  outer SCF iter =    1 RMS gradient =   0.79E-06 energy =       -440.3499806309
  outer SCF loop converged in   1 iterations or   17 steps


 ENERGY| Total FORCE_EVAL ( QS ) energy [a.u.]:             -440.349980652280578

 --------  Informations at step =     9 ------------
  Optimization Method        =                 BFGS
  Total Energy               =      -440.3499806523
  Real energy change         =        -0.0003294821
  Predicted change in energy =        -0.0002353608
  Scaling factor             =         0.0000000000
  Step size                  =         0.0773228633
  Trust radius               =         0.1889726133
  Decrease in energy         =                  YES
  Used time                  =                4.240

  Convergence check :
  Max. step size             =         0.0773228633
  Conv. limit for step size  =         0.0002000000
  Convergence in step size   =                   NO
  RMS step size              =         0.0170222412
  Conv. limit for RMS step   =         0.0001000000
  Convergence in RMS step    =                   NO
  Max. gradient              =         0.0021403073
  Conv. limit for gradients  =         0.0002000000
  Conv. for gradients        =                   NO
  RMS gradient               =         0.0006751281
  Conv. limit for RMS grad.  =         0.0001000000
  Conv. for gradients        =                   NO
 ---------------------------------------------------
 Estimated peak process memory after this step [MiB]                         293

 --------------------------
 OPTIMIZATION STEP:     10
 --------------------------

 Number of electrons:                                                        220
 Number of occupied orbitals:                                                110
 Number of molecular orbitals:                                               110

 Number of orbital functions:                                                626
 Number of independent orbital functions:                                    626

 Extrapolation method: ASPC


 SCF WAVEFUNCTION OPTIMIZATION

  ----------------------------------- OT ---------------------------------------
  Minimizer      : DIIS                : direct inversion
                                         in the iterative subspace
                                         using   7 DIIS vectors
                                         safer DIIS on
  Preconditioner : FULL_KINETIC        : inversion of T + eS
  Precond_solver : DEFAULT
  stepsize       :    0.15000000                  energy_gap     :    0.00100000
  eps_taylor     :   0.10000E-15                  max_taylor     :             4
  ----------------------------------- OT ---------------------------------------

  Step     Update method      Time    Convergence         Total energy    Change
  ------------------------------------------------------------------------------
     1 OT DIIS     0.15E+00    0.1     0.00018616      -440.3493250220 -4.40E+02
     2 OT DIIS     0.15E+00    0.1     0.00013362      -440.3496268439 -3.02E-04
     3 OT DIIS     0.15E+00    0.1     0.00007875      -440.3499333850 -3.07E-04
     4 OT DIIS     0.15E+00    0.1     0.00005238      -440.3500624007 -1.29E-04
     5 OT DIIS     0.15E+00    0.1     0.00003161      -440.3501333285 -7.09E-05
     6 OT DIIS     0.15E+00    0.1     0.00001919      -440.3501607445 -2.74E-05
     7 OT DIIS     0.15E+00    0.1     0.00001256      -440.3501701171 -9.37E-06
     8 OT DIIS     0.15E+00    0.1     0.00000848      -440.3501742975 -4.18E-06
     9 OT DIIS     0.15E+00    0.1     0.00000628      -440.3501761430 -1.85E-06
    10 OT DIIS     0.15E+00    0.1     0.00000465      -440.3501773312 -1.19E-06
    11 OT DIIS     0.15E+00    0.1     0.00000353      -440.3501780623 -7.31E-07
    12 OT DIIS     0.15E+00    0.1     0.00000270      -440.3501785142 -4.52E-07
    13 OT DIIS     0.15E+00    0.1     0.00000203      -440.3501788024 -2.88E-07
    14 OT DIIS     0.15E+00    0.1     0.00000155      -440.3501789610 -1.59E-07
    15 OT DIIS     0.15E+00    0.1     0.00000117      -440.3501790505 -8.95E-08
    16 OT DIIS     0.15E+00    0.1     0.00000087      -440.3501791026 -5.21E-08

  *** SCF run converged in    16 steps ***


  Electronic density on regular grids:       -219.9999999993        0.0000000007
  Core density on regular grids:              219.9999999999       -0.0000000001
  Total charge density on r-space grids:        0.0000000006
  Total charge density g-space grids:           0.0000000006

  Overlap energy of the core charge distribution:               0.00000983871732
  Self energy of the core charge distribution:              -1115.68945094557171
  Core Hamiltonian energy:                                    325.72281573806600
  Hartree energy:                                             459.34565433544509
  Exchange-correlation energy:                               -109.45674129992449
  Dispersion energy:                                           -0.27246676933514

  Total energy:                                              -440.35017910260308

  outer SCF iter =    1 RMS gradient =   0.87E-06 energy =       -440.3501791026
  outer SCF loop converged in   1 iterations or   16 steps


 ENERGY| Total FORCE_EVAL ( QS ) energy [a.u.]:             -440.350179127771924

 --------  Informations at step =    10 ------------
  Optimization Method        =                 BFGS
  Total Energy               =      -440.3501791278
  Real energy change         =        -0.0001984755
  Predicted change in energy =        -0.0002213679
  Scaling factor             =         0.0000000000
  Step size                  =         0.0835577865
  Trust radius               =         0.1889726133
  Decrease in energy         =                  YES
  Used time                  =                4.072

  Convergence check :
  Max. step size             =         0.0835577865
  Conv. limit for step size  =         0.0002000000
  Convergence in step size   =                   NO
  RMS step size              =         0.0177498883
  Conv. limit for RMS step   =         0.0001000000
  Convergence in RMS step    =                   NO
  Max. gradient              =         0.0025128659
  Conv. limit for gradients  =         0.0002000000
  Conv. for gradients        =                   NO
  RMS gradient               =         0.0006560554
  Conv. limit for RMS grad.  =         0.0001000000
  Conv. for gradients        =                   NO
 ---------------------------------------------------
 Estimated peak process memory after this step [MiB]                         294

 --------------------------
 OPTIMIZATION STEP:     11
 --------------------------

 Number of electrons:                                                        220
 Number of occupied orbitals:                                                110
 Number of molecular orbitals:                                               110

 Number of orbital functions:                                                626
 Number of independent orbital functions:                                    626

 Extrapolation method: ASPC


 SCF WAVEFUNCTION OPTIMIZATION

  ----------------------------------- OT ---------------------------------------
  Minimizer      : DIIS                : direct inversion
                                         in the iterative subspace
                                         using   7 DIIS vectors
                                         safer DIIS on
  Preconditioner : FULL_KINETIC        : inversion of T + eS
  Precond_solver : DEFAULT
  stepsize       :    0.15000000                  energy_gap     :    0.00100000
  eps_taylor     :   0.10000E-15                  max_taylor     :             4
  ----------------------------------- OT ---------------------------------------

  Step     Update method      Time    Convergence         Total energy    Change
  ------------------------------------------------------------------------------
     1 OT DIIS     0.15E+00    0.1     0.00026421      -440.3486013243 -4.40E+02
     2 OT DIIS     0.15E+00    0.1     0.00018957      -440.3492100305 -6.09E-04
     3 OT DIIS     0.15E+00    0.1     0.00011019      -440.3498358318 -6.26E-04
     4 OT DIIS     0.15E+00    0.1     0.00007647      -440.3500815696 -2.46E-04
     5 OT DIIS     0.15E+00    0.1     0.00004746      -440.3502374124 -1.56E-04
     6 OT DIIS     0.15E+00    0.1     0.00002903      -440.3503039107 -6.65E-05
     7 OT DIIS     0.15E+00    0.1     0.00001984      -440.3503263473 -2.24E-05
[...]
 cp_eval_at                         212  4.0    0.091    0.098  757.733  757.735
 qs_forces                          211  5.0    0.104    0.206  756.683  756.686
 qs_energies                        212  6.0    0.010    0.011  715.618  715.639
 scf_env_do_scf                     212  7.0    0.005    0.014  383.290  383.300
 scf_env_do_scf_inner_loop         2639  8.0    0.034    0.108  365.937  366.224
 qs_energies_init_hamiltonians      212  7.0    0.004    0.005  315.443  315.446
 calculate_dispersion_pairpot       212  8.0   82.505  296.432  297.263  297.264
 mp_sum_d                         60623 14.3  218.832  276.798  218.832  276.798
 rebuild_ks_matrix                 2850  9.8    0.007    0.008  220.941  221.489
 qs_ks_build_kohn_sham_matrix      2850 10.8    0.273    0.315  220.934  221.482
 qs_ks_update_qs_env               2851  9.0    0.019    0.020  185.762  186.273
 sum_up_and_integrate              2850 11.8    0.112    0.137  175.674  175.922
 integrate_v_rspace                2850 12.8    0.182    0.246  175.558  175.817
 qs_rho_update_rho_low             2851  9.1    0.009    0.010  141.658  141.762
 calculate_rho_elec                2851 10.1    0.165    0.187  141.649  141.753
 rs_pw_transfer                   23227 13.4    0.154    0.203  117.963  135.170
 grid_integrate_task_list          2850 13.8   57.283  121.878   57.283  121.878
 density_rs2pw                     2851 11.1    0.070    0.092   86.273  103.220
 grid_collocate_task_list          2851 11.1   54.485   91.751   54.485   91.751
 mp_alltoall_d11v                 44912 14.8   66.099   82.283   66.099   82.283
 rs_gather_matrices                2850 13.8    0.059    0.077   65.491   82.001
 dbcsr_multiply_generic           50987 13.9    0.951    1.090   64.182   70.637
 mp_waitany                      244968 15.2   46.834   66.565   46.834   66.565
 rs_pw_transfer_RS2PW_230          3063 12.9    4.694    7.077   46.719   63.907
 qs_scf_new_mos                    2639  9.0    0.009    0.010   62.234   63.000
 qs_scf_loop_do_ot                 2639 10.0    0.009    0.011   62.224   62.990
 ot_scf_mini                       2639 11.0    0.023    0.027   58.865   59.643
 pw_transfer                      54367 14.0   17.133   19.532   53.286   54.025
 potential_pw2rs                   2850 13.8    0.058    0.064   52.566   52.853
 multiply_cannon                  50987 14.9   18.088   21.024   39.463   44.689
 ot_mini                           2639 12.0    0.009    0.010   41.289   42.010
 fft_wrap_pw1pw2                  48667 15.1    0.108    0.129   36.005   40.576
 qs_ot_get_derivative              2639 13.0    0.019    0.021   36.624   37.413
 qs_ks_update_qs_env_forces         211  6.0    0.001    0.001   35.308   35.345
 qs_vxc_create                     2850 11.8    0.034    0.056   31.766   31.896
 xc_vxc_pw_create                  2850 12.8    1.105    1.182   31.732   31.862
 fft_wrap_pw1pw2_230              31564 16.5    1.666    2.100   27.945   30.890
 fft3d_pb                         31564 17.5    5.402    7.386   22.779   25.918
 qs_ot_get_derivative_taylor       2478 14.0    0.032    0.034   23.934   24.670
 rs_pw_transfer_PW2RS_230          3061 15.4   10.479   12.015   22.443   23.931
 mp_waitall_1                   9052252 17.8   19.753   23.607   19.753   23.607
 rs_pw_transfer_RS2PW_80           2851 13.1   10.340   19.349   21.168   22.850
 multiply_cannon_loop             50987 15.9    2.637    2.812   17.423   21.042
 xc_pw_derive                     17100 14.8    0.035    0.045   19.746   20.537
 mp_alltoall_z22v                 80231 19.3   15.120   19.447   15.120   19.447
 xc_rho_set_and_dset_create        2850 13.8    0.342    0.421   17.419   18.231
 rs_pw_transfer_PW2RS_80           2850 15.8    4.056    4.531   15.019   17.403
 mp_sendrecv_dv                 1633623 14.1   15.023   17.199   15.023   17.199
 init_scf_loop                      212  8.0    0.015    0.016   16.963   16.969
 mp_sum_l                        241654 15.0    6.010   15.811    6.010   15.811
 init_scf_run                       212  7.0    0.003    0.012   15.755   15.775
 scf_env_initial_rho_setup          212  8.0    0.002    0.005   15.751   15.772
 wfi_extrapolate                    212  9.0    0.009    0.009   15.554   15.555
 make_m2s                        101974 14.9    0.877    0.904   14.657   15.372
 -------------------------------------------------------------------------------

 The number of warnings for this run is : 2
 
 -------------------------------------------------------------------------------
  **** **** ******  **  PROGRAM ENDED AT                 2025-06-16 18:34:49.637
 ***** ** ***  *** **   PROGRAM RAN ON                                  nid00445
 **    ****   ******    PROGRAM RAN BY                                 x_satyanb
 ***** **    ** ** **   PROGRAM PROCESS ID                               1473405
  **** **  *******  **  PROGRAM STOPPED IN /scratch/x_satyanb/CCDC_NEW_2071_MOFs
                                           _ODAC_OPT/DFT_CALCULATIONS_with_CP2K_
                                           90MOFs/PBE_SOL_METHOD/OPTIMIZATION_MO
                                           F_ET/qmof-a9be673
[CRAYBLAS_WARNING] Application linked against multiple cray-libsci libraries
[CRAYBLAS_WARNING] Application linked against multiple cray-libsci libraries
[CRAYBLAS_WARNING] Application linked against multiple cray-libsci libraries
[CRAYBLAS_WARNING] Application linked against multiple cray-libsci libraries
[CRAYBLAS_WARNING] Application linked against multiple cray-libsci libraries
[CRAYBLAS_WARNING] Application linked against multiple cray-libsci libraries
[CRAYBLAS_WARNING] Application linked against multiple cray-libsci libraries
[CRAYBLAS_WARNING] Application linked against multiple cray-libsci libraries
[CRAYBLAS_WARNING] Application linked against multiple cray-libsci libraries
[CRAYBLAS_WARNING] Application linked against multiple cray-libsci libraries
[CRAYBLAS_WARNING] Application linked against multiple cray-libsci libraries
[CRAYBLAS_WARNING] Application linked against multiple cray-libsci libraries
[CRAYBLAS_WARNING] Application linked against multiple cray-libsci libraries
[CRAYBLAS_WARNING] Application linked against multiple cray-libsci libraries
[CRAYBLAS_WARNING] Application linked against multiple cray-libsci libraries
[CRAYBLAS_WARNING] Application linked against multiple cray-libsci libraries
[CRAYBLAS_WARNING] Application linked against multiple cray-libsci libraries
[CRAYBLAS_WARNING] Application linked against multiple cray-libsci libraries
[CRAYBLAS_WARNING] Application linked against multiple cray-libsci libraries
[CRAYBLAS_WARNING] Application linked against multiple cray-libsci libraries
[CRAYBLAS_WARNING] Application linked against multiple cray-libsci libraries
[CRAYBLAS_WARNING] Application linked against multiple cray-libsci libraries
[CRAYBLAS_WARNING] Application linked against multiple cray-libsci libraries
[CRAYBLAS_WARNING] Application linked against multiple cray-libsci libraries
[CRAYBLAS_WARNING] Application linked against multiple cray-libsci libraries
[CRAYBLAS_WARNING] Application linked against multiple cray-libsci libraries
[CRAYBLAS_WARNING] Application linked against multiple cray-libsci libraries
[CRAYBLAS_WARNING] Application linked against multiple cray-libsci libraries
[CRAYBLAS_WARNING] Application linked against multiple cray-libsci libraries
[CRAYBLAS_WARNING] Application linked against multiple cray-libsci libraries
[CRAYBLAS_WARNING] Application linked against multiple cray-libsci libraries
[CRAYBLAS_WARNING] Application linked against multiple cray-libsci libraries
[CRAYBLAS_WARNING] Application linked against multiple cray-libsci libraries
[CRAYBLAS_WARNING] Application linked against multiple cray-libsci libraries
[CRAYBLAS_WARNING] Application linked against multiple cray-libsci libraries
[CRAYBLAS_WARNING] Application linked against multiple cray-libsci libraries
[CRAYBLAS_WARNING] Application linked against multiple cray-libsci libraries
[CRAYBLAS_WARNING] Application linked against multiple cray-libsci libraries
[CRAYBLAS_WARNING] Application linked against multiple cray-libsci libraries
[CRAYBLAS_WARNING] Application linked against multiple cray-libsci libraries
[CRAYBLAS_WARNING] Application linked against multiple cray-libsci libraries
[CRAYBLAS_WARNING] Application linked against multiple cray-libsci libraries
[CRAYBLAS_WARNING] Application linked against multiple cray-libsci libraries
[CRAYBLAS_WARNING] Application linked against multiple cray-libsci libraries
[CRAYBLAS_WARNING] Application linked against multiple cray-libsci libraries
[CRAYBLAS_WARNING] Application linked against multiple cray-libsci libraries
[CRAYBLAS_WARNING] Application linked against multiple cray-libsci libraries
[CRAYBLAS_WARNING] Application linked against multiple cray-libsci libraries
[CRAYBLAS_WARNING] Application linked against multiple cray-libsci libraries
[CRAYBLAS_WARNING] Application linked against multiple cray-libsci libraries
[CRAYBLAS_WARNING] Application linked against multiple cray-libsci libraries
[CRAYBLAS_WARNING] Application linked against multiple cray-libsci libraries
[CRAYBLAS_WARNING] Application linked against multiple cray-libsci libraries
[CRAYBLAS_WARNING] Application linked against multiple cray-libsci libraries
[CRAYBLAS_WARNING] Application linked against multiple cray-libsci libraries
[CRAYBLAS_WARNING] Application linked against multiple cray-libsci libraries
[CRAYBLAS_WARNING] Application linked against multiple cray-libsci libraries
[CRAYBLAS_WARNING] Application linked against multiple cray-libsci libraries
[CRAYBLAS_WARNING] Application linked against multiple cray-libsci libraries
[CRAYBLAS_WARNING] Application linked against multiple cray-libsci libraries
[CRAYBLAS_WARNING] Application linked against multiple cray-libsci libraries
[CRAYBLAS_WARNING] Application linked against multiple cray-libsci libraries
[CRAYBLAS_WARNING] Application linked against multiple cray-libsci libraries
[CRAYBLAS_WARNING] Application linked against multiple cray-libsci libraries
[CRAYBLAS_WARNING] Application linked against multiple cray-libsci libraries
[CRAYBLAS_WARNING] Application linked against multiple cray-libsci libraries
[CRAYBLAS_WARNING] Application linked against multiple cray-libsci libraries
[CRAYBLAS_WARNING] Application linked against multiple cray-libsci libraries
[CRAYBLAS_WARNING] Application linked against multiple cray-libsci libraries
[CRAYBLAS_WARNING] Application linked against multiple cray-libsci libraries
[CRAYBLAS_WARNING] Application linked against multiple cray-libsci libraries
[CRAYBLAS_WARNING] Application linked against multiple cray-libsci libraries
[CRAYBLAS_WARNING] Application linked against multiple cray-libsci libraries
[CRAYBLAS_WARNING] Application linked against multiple cray-libsci libraries
[CRAYBLAS_WARNING] Application linked against multiple cray-libsci libraries
[CRAYBLAS_WARNING] Application linked against multiple cray-libsci libraries
[CRAYBLAS_WARNING] Application linked against multiple cray-libsci libraries
[CRAYBLAS_WARNING] Application linked against multiple cray-libsci libraries
[CRAYBLAS_WARNING] Application linked against multiple cray-libsci libraries
[CRAYBLAS_WARNING] Application linked against multiple cray-libsci libraries
[CRAYBLAS_WARNING] Application linked against multiple cray-libsci libraries
[CRAYBLAS_WARNING] Application linked against multiple cray-libsci libraries
[CRAYBLAS_WARNING] Application linked against multiple cray-libsci libraries
[CRAYBLAS_WARNING] Application linked against multiple cray-libsci libraries
[CRAYBLAS_WARNING] Application linked against multiple cray-libsci libraries
[CRAYBLAS_WARNING] Application linked against multiple cray-libsci libraries
[CRAYBLAS_WARNING] Application linked against multiple cray-libsci libraries
[CRAYBLAS_WARNING] Application linked against multiple cray-libsci libraries
[CRAYBLAS_WARNING] Application linked against multiple cray-libsci libraries
[CRAYBLAS_WARNING] Application linked against multiple cray-libsci libraries
[CRAYBLAS_WARNING] Application linked against multiple cray-libsci libraries
[CRAYBLAS_WARNING] Application linked against multiple cray-libsci libraries
[CRAYBLAS_WARNING] Application linked against multiple cray-libsci libraries
[CRAYBLAS_WARNING] Application linked against multiple cray-libsci libraries
[CRAYBLAS_WARNING] Application linked against multiple cray-libsci libraries
[CRAYBLAS_WARNING] Application linked against multiple cray-libsci libraries
[CRAYBLAS_WARNING] Application linked against multiple cray-libsci libraries
[CRAYBLAS_WARNING] Application linked against multiple cray-libsci libraries
[CRAYBLAS_WARNING] Application linked against multiple cray-libsci libraries
[CRAYBLAS_WARNING] Application linked against multiple cray-libsci libraries
[CRAYBLAS_WARNING] Application linked against multiple cray-libsci libraries
[CRAYBLAS_WARNING] Application linked against multiple cray-libsci libraries
[CRAYBLAS_WARNING] Application linked against multiple cray-libsci libraries
[CRAYBLAS_WARNING] Application linked against multiple cray-libsci libraries
[CRAYBLAS_WARNING] Application linked against multiple cray-libsci libraries
[CRAYBLAS_WARNING] Application linked against multiple cray-libsci libraries
[CRAYBLAS_WARNING] Application linked against multiple cray-libsci libraries
[CRAYBLAS_WARNING] Application linked against multiple cray-libsci libraries
[CRAYBLAS_WARNING] Application linked against multiple cray-libsci libraries
[CRAYBLAS_WARNING] Application linked against multiple cray-libsci libraries
[CRAYBLAS_WARNING] Application linked against multiple cray-libsci libraries
[CRAYBLAS_WARNING] Application linked against multiple cray-libsci libraries
[CRAYBLAS_WARNING] Application linked against multiple cray-libsci libraries
[CRAYBLAS_WARNING] Application linked against multiple cray-libsci libraries
[CRAYBLAS_WARNING] Application linked against multiple cray-libsci libraries
[CRAYBLAS_WARNING] Application linked against multiple cray-libsci libraries
[CRAYBLAS_WARNING] Application linked against multiple cray-libsci libraries
[CRAYBLAS_WARNING] Application linked against multiple cray-libsci libraries
[CRAYBLAS_WARNING] Application linked against multiple cray-libsci libraries
[CRAYBLAS_WARNING] Application linked against multiple cray-libsci libraries
[CRAYBLAS_WARNING] Application linked against multiple cray-libsci libraries
[CRAYBLAS_WARNING] Application linked against multiple cray-libsci libraries
[CRAYBLAS_WARNING] Application linked against multiple cray-libsci libraries
[CRAYBLAS_WARNING] Application linked against multiple cray-libsci libraries
[CRAYBLAS_WARNING] Application linked against multiple cray-libsci libraries
[CRAYBLAS_WARNING] Application linked against multiple cray-libsci libraries
[CRAYBLAS_WARNING] Application linked against multiple cray-libsci libraries
[CRAYBLAS_WARNING] Application linked against multiple cray-libsci libraries
[CRAYBLAS_WARNING] Application linked against multiple cray-libsci libraries
[CRAYBLAS_WARNING] Application linked against multiple cray-libsci libraries
[CRAYBLAS_WARNING] Application linked against multiple cray-libsci libraries
[CRAYBLAS_WARNING] Application linked against multiple cray-libsci libraries
[CRAYBLAS_WARNING] Application linked against multiple cray-libsci libraries
[CRAYBLAS_WARNING] Application linked against multiple cray-libsci libraries
[CRAYBLAS_WARNING] Application linked against multiple cray-libsci libraries
[CRAYBLAS_WARNING] Application linked against multiple cray-libsci libraries
[CRAYBLAS_WARNING] Application linked against multiple cray-libsci libraries
[CRAYBLAS_WARNING] Application linked against multiple cray-libsci libraries
[CRAYBLAS_WARNING] Application linked against multiple cray-libsci libraries
[CRAYBLAS_WARNING] Application linked against multiple cray-libsci libraries
[CRAYBLAS_WARNING] Application linked against multiple cray-libsci libraries
[CRAYBLAS_WARNING] Application linked against multiple cray-libsci libraries
[CRAYBLAS_WARNING] Application linked against multiple cray-libsci libraries
[CRAYBLAS_WARNING] Application linked against multiple cray-libsci libraries
[CRAYBLAS_WARNING] Application linked against multiple cray-libsci libraries
[CRAYBLAS_WARNING] Application linked against multiple cray-libsci libraries
[CRAYBLAS_WARNING] Application linked against multiple cray-libsci libraries
[CRAYBLAS_WARNING] Application linked against multiple cray-libsci libraries
[CRAYBLAS_WARNING] Application linked against multiple cray-libsci libraries
[CRAYBLAS_WARNING] Application linked against multiple cray-libsci libraries
[CRAYBLAS_WARNING] Application linked against multiple cray-libsci libraries
[CRAYBLAS_WARNING] Application linked against multiple cray-libsci libraries
[CRAYBLAS_WARNING] Application linked against multiple cray-libsci libraries
[CRAYBLAS_WARNING] Application linked against multiple cray-libsci libraries
[CRAYBLAS_WARNING] Application linked against multiple cray-libsci libraries
[CRAYBLAS_WARNING] Application linked against multiple cray-libsci libraries
[CRAYBLAS_WARNING] Application linked against multiple cray-libsci libraries
[CRAYBLAS_WARNING] Application linked against multiple cray-libsci libraries
[CRAYBLAS_WARNING] Application linked against multiple cray-libsci libraries
[CRAYBLAS_WARNING] Application linked against multiple cray-libsci libraries
[CRAYBLAS_WARNING] Application linked against multiple cray-libsci libraries
[CRAYBLAS_WARNING] Application linked against multiple cray-libsci libraries
[CRAYBLAS_WARNING] Application linked against multiple cray-libsci libraries
[CRAYBLAS_WARNING] Application linked against multiple cray-libsci libraries
[CRAYBLAS_WARNING] Application linked against multiple cray-libsci libraries
[CRAYBLAS_WARNING] Application linked against multiple cray-libsci libraries
[CRAYBLAS_WARNING] Application linked against multiple cray-libsci libraries
[CRAYBLAS_WARNING] Application linked against multiple cray-libsci libraries
[CRAYBLAS_WARNING] Application linked against multiple cray-libsci libraries
[CRAYBLAS_WARNING] Application linked against multiple cray-libsci libraries
[CRAYBLAS_WARNING] Application linked against multiple cray-libsci libraries
[CRAYBLAS_WARNING] Application linked against multiple cray-libsci libraries
[CRAYBLAS_WARNING] Application linked against multiple cray-libsci libraries
[CRAYBLAS_WARNING] Application linked against multiple cray-libsci libraries
[CRAYBLAS_WARNING] Application linked against multiple cray-libsci libraries
[CRAYBLAS_WARNING] Application linked against multiple cray-libsci libraries
[CRAYBLAS_WARNING] Application linked against multiple cray-libsci libraries
[CRAYBLAS_WARNING] Application linked against multiple cray-libsci libraries
[CRAYBLAS_WARNING] Application linked against multiple cray-libsci libraries
[CRAYBLAS_WARNING] Application linked against multiple cray-libsci libraries
[CRAYBLAS_WARNING] Application linked against multiple cray-libsci libraries
[CRAYBLAS_WARNING] Application linked against multiple cray-libsci libraries
[CRAYBLAS_WARNING] Application linked against multiple cray-libsci libraries
[CRAYBLAS_WARNING] Application linked against multiple cray-libsci libraries
[CRAYBLAS_WARNING] Application linked against multiple cray-libsci libraries
[CRAYBLAS_WARNING] Application linked against multiple cray-libsci libraries
[CRAYBLAS_WARNING] Application linked against multiple cray-libsci libraries
[CRAYBLAS_WARNING] Application linked against multiple cray-libsci libraries
[CRAYBLAS_WARNING] Application linked against multiple cray-libsci libraries
[CRAYBLAS_WARNING] Application linked against multiple cray-libsci libraries
[CRAYBLAS_WARNING] Application linked against multiple cray-libsci libraries
[CRAYBLAS_WARNING] Application linked against multiple cray-libsci libraries
